/*--------------------------------*- C++ -*----------------------------------*\
  =========                 |
  \\      /  F ield         | OpenFOAM: The Open Source CFD Toolbox
   \\    /   O peration     | Website:  https://openfoam.org
    \\  /    A nd           | Version:  9
     \\/     M anipulation  |
\*---------------------------------------------------------------------------*/
FoamFile
{
    format      ascii;
    class       volScalarField;
    location    "0.25";
    object      gradTx;
}
// * * * * * * * * * * * * * * * * * * * * * * * * * * * * * * * * * * * * * //

dimensions      [0 -1 0 1 0 0 0];

internalField   nonuniform List<scalar> 
200000
(
5052.45
2327.11
1404.73
998.751
779.797
644.711
553.961
489.551
442.13
406.327
378.822
357.429
340.639
327.366
316.796
308.298
301.374
295.614
290.68
286.283
282.175
278.143
273.999
269.581
264.747
259.374
253.358
246.611
239.062
230.657
221.355
211.131
199.977
187.897
174.908
161.044
146.348
130.875
114.695
97.8825
80.5248
62.7156
44.5552
26.1495
7.60834
-10.9561
-29.4302
-47.7006
-65.6555
-83.186
-100.187
-116.56
-132.212
-147.057
-161.018
-174.029
-186.031
-196.978
-206.834
-215.573
-223.183
-229.661
-235.017
-239.271
-242.456
-244.612
-245.792
-246.059
-245.484
-244.147
-242.136
-239.547
-236.486
-233.064
-229.4
-225.623
-221.867
-218.278
-215.013
-212.24
-210.144
-208.933
-208.837
-210.124
-213.108
-218.166
-225.765
-236.498
-251.139
-270.739
-296.765
-331.365
-377.823
-441.473
-531.636
-666.279
-884.909
-1290.67
-2212.91
-4938.17
10123.8
5862.5
3912.59
2893.82
2295.97
1912.26
1649.48
1461.07
1321.52
1215.77
1134.32
1070.87
1021.01
981.564
950.127
924.845
904.234
887.083
872.381
859.27
847.012
834.967
822.577
809.355
794.876
778.773
760.734
740.497
717.849
692.624
664.705
634.018
600.533
564.265
525.27
483.643
439.516
393.058
344.472
293.988
241.866
188.387
133.853
78.5811
22.9021
-32.8472
-88.3257
-143.193
-197.113
-249.759
-300.816
-349.986
-396.991
-441.573
-483.502
-522.576
-558.622
-591.499
-621.097
-647.343
-670.197
-689.652
-705.736
-718.512
-728.073
-734.547
-738.089
-738.887
-737.154
-733.13
-727.081
-719.297
-710.089
-699.795
-688.771
-677.399
-666.088
-655.271
-645.416
-637.029
-630.664
-626.936
-626.536
-630.259
-639.04
-653.997
-676.512
-708.335
-751.745
-809.814
-886.819
-988.959
-1125.62
-1311.75
-1572.76
-1955.14
-2552.02
-3570.12
-5519.61
-9780.68
13242.1
8467.04
6004.07
4592.43
3711.28
3123.54
2711.38
2411.42
2187.1
2016.01
1883.65
1780.22
1698.76
1634.21
1582.72
1541.26
1507.44
1479.28
1455.11
1433.52
1413.31
1393.4
1372.89
1350.96
1326.9
1300.12
1270.08
1236.37
1198.61
1156.54
1109.97
1058.77
1002.89
942.353
877.26
807.767
734.097
656.531
575.407
491.112
404.077
314.775
223.708
131.409
38.4264
-54.6749
-147.326
-238.957
-329.008
-416.932
-502.204
-584.325
-662.83
-737.29
-807.321
-872.583
-932.788
-987.699
-1037.14
-1080.97
-1119.14
-1151.64
-1178.5
-1199.83
-1215.8
-1226.6
-1232.51
-1233.83
-1230.92
-1224.17
-1214.04
-1201
-1185.58
-1168.33
-1149.84
-1130.76
-1111.77
-1093.57
-1076.95
-1062.75
-1051.88
-1045.36
-1044.32
-1050.07
-1064.14
-1088.36
-1124.97
-1176.79
-1247.49
-1341.94
-1466.88
-1631.95
-1851.44
-2147.6
-2556.83
-3142.35
-4021.88
-5432.4
-7894.66
-12669.3
15441.1
10461.8
7737.01
6084.09
5004.48
4260.14
3725.9
3330.77
3031.93
2802.19
2623.46
2483.2
2372.44
2284.47
2214.19
2157.54
2111.28
2072.71
2039.56
2009.89
1982.03
1954.51
1926.07
1895.58
1862.06
1824.68
1782.69
1735.51
1682.64
1623.69
1558.4
1486.59
1408.21
1323.28
1231.94
1134.41
1031.01
922.135
808.255
689.918
567.728
442.349
314.489
184.892
54.3335
-76.3958
-206.496
-335.167
-461.622
-585.093
-704.842
-820.169
-930.418
-1034.99
-1133.34
-1225
-1309.55
-1386.67
-1456.11
-1517.67
-1571.28
-1616.92
-1654.64
-1684.6
-1707.01
-1722.17
-1730.44
-1732.27
-1728.14
-1718.62
-1704.33
-1685.94
-1664.18
-1639.83
-1613.73
-1586.75
-1559.85
-1534.03
-1510.37
-1490.02
-1474.26
-1464.49
-1462.27
-1469.4
-1487.96
-1520.43
-1569.82
-1639.93
-1735.61
-1863.25
-2031.6
-2252.89
-2544.96
-2934.76
-3464.88
-4206.11
-5283.45
-6934.79
-9658.64
-14637.4
17134.6
12060.7
9194.34
7392.67
6177.29
5316.98
4686.83
4213.6
3851.62
3571
3351.33
3178.17
3040.97
2931.75
2844.33
2773.78
2716.09
2667.91
2626.42
2589.19
2554.11
2519.33
2483.23
2444.38
2401.56
2353.67
2299.8
2239.18
2171.17
2095.29
2011.2
1918.67
1817.63
1708.13
1590.33
1464.54
1331.15
1190.68
1043.75
891.049
733.369
571.564
406.549
239.285
70.7734
-97.965
-265.896
-431.989
-595.226
-754.614
-909.202
-1058.08
-1200.42
-1335.42
-1462.4
-1580.73
-1689.9
-1789.47
-1879.12
-1958.61
-2027.82
-2086.74
-2135.44
-2174.1
-2203.02
-2222.57
-2233.22
-2235.52
-2230.13
-2217.76
-2199.2
-2175.33
-2147.08
-2115.45
-2081.5
-2046.38
-2011.28
-1977.5
-1946.4
-1919.46
-1898.29
-1884.66
-1880.54
-1888.17
-1910.14
-1949.52
-2010.01
-2096.22
-2213.97
-2370.88
-2577.15
-2846.89
-3200.15
-3666.52
-4291.36
-5147.67
-6360.12
-8159.77
-11024.9
-16098.2
18516.9
13393.3
10445.5
8550.1
7242.1
6297.36
5593.69
5058.12
4644.16
4320.66
4065.88
3864.13
3703.74
3575.74
3473.11
3390.17
3322.26
3265.46
3216.42
3172.27
3130.48
3088.84
3045.41
2998.47
2946.53
2888.28
2822.6
2748.56
2665.39
2572.52
2469.51
2356.11
2232.23
2097.92
1953.41
1799.06
1635.36
1462.95
1282.58
1095.12
901.527
702.856
500.23
294.833
87.8927
-119.335
-325.58
-529.575
-730.069
-925.843
-1115.73
-1298.61
-1473.45
-1639.29
-1795.28
-1940.65
-2074.76
-2197.09
-2307.22
-2404.88
-2489.91
-2562.28
-2622.1
-2669.59
-2705.09
-2729.07
-2742.1
-2744.86
-2738.14
-2722.82
-2699.87
-2670.35
-2635.41
-2596.25
-2554.19
-2510.59
-2466.94
-2424.77
-2385.76
-2351.68
-2324.46
-2306.23
-2299.32
-2306.39
-2330.49
-2375.2
-2444.81
-2544.58
-2681.13
-2862.96
-3101.33
-3411.49
-3814.76
-4341.92
-5039.1
-5978.93
-7283.35
-9176.29
-12122.5
-17245.3
19691.6
14539.6
11542.2
9586.11
8214.52
7208.75
6449.57
5865.27
5409.52
5050.78
4766.67
4540.74
4360.55
4216.44
4100.7
4007.05
3930.27
3865.94
3810.25
3759.9
3712
3663.99
3613.62
3558.89
3498.05
3429.58
3352.18
3264.75
3166.4
3056.45
2934.4
2799.95
2653
2493.63
2322.1
2138.83
1944.44
1739.67
1525.41
1302.71
1072.7
836.635
595.856
351.769
105.834
-140.456
-385.59
-628.06
-866.379
-1099.1
-1324.82
-1542.23
-1750.08
-1947.25
-2132.7
-2305.54
-2465
-2610.45
-2741.4
-2857.51
-2958.61
-3044.66
-3115.77
-3172.21
-3214.38
-3242.84
-3258.26
-3261.45
-3253.33
-3234.95
-3207.45
-3172.09
-3130.21
-3083.25
-3032.74
-2980.3
-2927.66
-2876.62
-2829.13
-2787.26
-2753.26
-2729.56
-2718.85
-2724.17
-2748.97
-2797.26
-2873.82
-2984.45
-3136.35
-3338.66
-3603.31
-3946.23
-4389.31
-4963.65
-5715.13
-6715.09
-8082.45
-10035.6
-13031.1
-18182.3
20720.3
15550.7
12521.9
10525.5
9109.89
8060.1
7259.48
6637.7
6149.05
5762.03
5454.03
5208.21
5011.63
4854.12
4727.45
4624.86
4540.65
4469.97
4408.6
4352.86
4299.51
4245.66
4188.77
4126.58
4057.09
3978.58
3889.56
3788.77
3675.21
3548.09
3406.84
3251.14
3080.87
2896.12
2697.21
2484.64
2259.11
2021.49
1772.84
1514.34
1247.34
973.282
693.729
410.314
124.734
-161.275
-445.957
-727.56
-1004.36
-1274.66
-1536.85
-1789.39
-2030.84
-2259.89
-2475.34
-2676.14
-2861.39
-3030.38
-3182.52
-3317.43
-3434.88
-3534.85
-3617.45
-3683
-3731.95
-3764.95
-3782.77
-3786.35
-3776.75
-3755.18
-3722.97
-3681.55
-3632.47
-3577.38
-3518.05
-3456.34
-3394.22
-3333.75
-3277.16
-3226.79
-3185.18
-3155.06
-3139.46
-3141.73
-3165.67
-3215.69
-3296.95
-3415.67
-3579.47
-3797.94
-4083.39
-4452.09
-4926.09
-5536.32
-6328.04
-7371.11
-8781.87
-10774.9
-13801.5
-18970.1
21642.2
16461.4
13411.9
11388.3
9941.87
8860.42
8029.15
7379.01
6864.96
6455.8
6128.89
5867.2
5657.5
5489.25
5353.84
5244.1
5153.95
5078.15
5012.13
4951.85
4893.74
4834.64
4771.69
4702.39
4624.53
4536.16
4435.63
4321.52
4192.71
4048.31
3887.71
3710.53
3516.65
3306.19
3079.5
2837.18
2580.02
2309.02
2025.39
1730.5
1425.86
1113.14
794.125
470.672
144.725
-181.734
-506.699
-828.167
-1144.16
-1452.77
-1752.12
-2040.47
-2316.17
-2577.72
-2823.75
-3053.05
-3264.62
-3457.61
-3631.36
-3785.44
-3919.58
-4033.74
-4128.05
-4202.88
-4258.73
-4296.33
-4316.57
-4320.51
-4309.34
-4284.45
-4247.32
-4199.59
-4143.01
-4079.45
-4010.9
-3939.45
-3867.32
-3796.82
-3730.44
-3670.8
-3620.69
-3583.15
-3561.47
-3559.33
-3580.84
-3630.69
-3714.39
-3838.47
-4010.85
-4241.4
-4542.65
-4930.97
-5428.35
-6065.37
-6886.51
-7960.33
-9401.19
-11421
-14468
-19647.7
22483.9
17295.7
14232.3
12190.1
10722.1
9618
8764.36
8093.14
7559.96
7133.93
6792.53
6518.65
6298.9
6122.46
5980.44
5865.34
5770.74
5691.08
5621.45
5557.51
5495.38
5431.61
5363.09
5287.07
5201.12
5103.09
4991.15
4863.76
4719.66
4557.88
4377.74
4178.83
3961.03
3724.49
3469.61
3197.05
2907.73
2602.78
2283.55
1951.6
1608.63
1256.53
897.29
533.029
165.929
-201.774
-567.819
-929.949
-1285.94
-1633.61
-1970.89
-2295.78
-2606.44
-2901.16
-3178.41
-3436.82
-3675.26
-3892.75
-4088.58
-4262.23
-4413.41
-4542.06
-4648.34
-4732.63
-4795.51
-4837.8
-4860.47
-4864.72
-4851.9
-4823.52
-4781.28
-4726.98
-4662.58
-4590.18
-4511.97
-4430.28
-4347.57
-4266.4
-4189.51
-4119.77
-4060.24
-4014.22
-3985.28
-3977.34
-3994.79
-4042.61
-4126.53
-4253.34
-4431.18
-4670.09
-4982.68
-5385.32
-5899.8
-6556.3
-7398.59
-8494.15
-9955.86
-11993.8
-15054.5
-20241.4
23264.3
18071.1
14998.3
12943.3
11460.3
10340.2
9470.52
8784.03
8236.86
7798.47
7446.45
7163.71
6936.71
6754.48
6607.88
6489.14
6391.56
6309.28
6237.09
6170.37
6104.97
6037.15
5963.56
5881.21
5787.46
5679.97
5556.75
5416.11
5256.68
5077.4
4877.53
4656.64
4414.6
4151.58
3868.05
3564.75
3242.71
2903.19
2547.71
2177.99
1795.95
1403.69
1003.44
597.55
188.462
-221.331
-629.305
-1032.94
-1429.76
-1817.34
-2193.34
-2555.56
-2901.93
-3230.55
-3539.69
-3827.86
-4093.75
-4336.3
-4554.69
-4748.35
-4916.95
-5060.41
-5178.91
-5272.87
-5342.93
-5389.97
-5415.11
-5419.63
-5405.05
-5373.04
-5325.46
-5264.32
-5191.78
-5110.13
-5021.8
-4929.35
-4835.47
-4742.97
-4654.82
-4574.14
-4504.25
-4448.67
-4411.24
-4396.12
-4407.94
-4451.88
-4533.91
-4660.99
-4841.42
-5085.32
-5405.35
-5817.77
-6344.17
-7014.34
-7871.43
-8982.08
-10458.1
-12508.4
-15578.1
-20769.9
23997.1
18800.5
15721.5
13657.7
12164.5
11033.3
10152.5
9455.36
8898.45
8451.49
8092.22
7803.54
7571.86
7386.05
7236.77
7116.03
7016.88
6933.19
6859.49
6790.88
6722.94
6651.69
6573.53
6485.26
6384.01
6267.27
6132.89
5979.04
5804.23
5607.33
5387.54
5144.4
4877.78
4587.88
4275.23
3940.66
3585.31
3210.59
2818.16
2409.95
1988.07
1554.85
1112.75
664.377
212.429
-240.334
-691.125
-1137.16
-1575.68
-2004.02
-2419.6
-2819.97
-3202.84
-3566.1
-3907.86
-4226.44
-4520.41
-4788.59
-5030.06
-5244.18
-5430.6
-5589.22
-5720.21
-5824.05
-5901.43
-5953.33
-5980.95
-5985.72
-5969.28
-5933.47
-5880.34
-5812.07
-5731.03
-5639.73
-5540.81
-5437.07
-5331.41
-5226.89
-5126.72
-5034.25
-4953.03
-4886.84
-4839.72
-4816.06
-4820.7
-4859.02
-4937.17
-5062.23
-5242.63
-5488.54
-5812.61
-6230.99
-6765.06
-7444.26
-8311.25
-9432.03
-10917.6
-12976.1
-16051.9
-21246.9
24692.6
19493.9
16410.7
14341.2
12841.3
11702.8
10814.6
10110.5
9547.3
9094.98
8731.34
8439.31
8205.23
8017.85
7867.66
7746.47
7647.1
7563.17
7488.96
7419.32
7349.58
7275.51
7193.29
7099.48
6991.04
6865.27
6719.86
6552.83
6362.61
6147.97
5908.06
5642.39
5350.85
5033.66
4691.41
4325.04
3935.78
3525.19
3095.12
2647.67
2185.16
1710.15
1225.36
733.627
237.927
-258.713
-753.23
-1242.56
-1723.7
-2193.69
-2649.71
-3089.07
-3509.25
-3907.94
-4283.05
-4632.73
-4955.42
-5249.81
-5514.89
-5749.96
-5954.6
-6128.72
-6272.51
-6386.45
-6471.31
-6528.16
-6558.29
-6563.26
-6544.86
-6505.1
-6446.19
-6370.51
-6280.62
-6179.26
-6069.28
-5953.69
-5835.65
-5718.43
-5605.47
-5500.36
-5406.87
-5329
-5271.02
-5237.51
-5233.5
-5264.56
-5336.95
-5457.92
-5635.94
-5881.24
-6206.41
-6627.53
-7165.77
-7850.3
-8723.37
-9850.51
-11342.2
-13405.9
-16485.5
-21682.6
25358.7
20158.7
17072.9
15000
13495.8
12352.9
11460.4
10752.3
10185.7
9730.71
9365.18
9072.06
8837.62
8650.49
8501.02
8380.82
8282.49
8199.42
8125.67
8055.84
7985
7908.71
7822.93
7723.99
7608.66
7474.07
7317.74
7137.59
6931.91
6699.41
6439.19
6150.73
5833.92
5489.03
5116.71
4717.99
4294.23
3847.13
3378.71
2891.26
2387.34
1869.72
1341.36
805.39
265.037
-276.392
-815.553
-1349.11
-1873.76
-2386.3
-2883.64
-3362.84
-3821.16
-4256.06
-4665.26
-5046.75
-5398.8
-5720
-6009.23
-6265.72
-6489.02
-6678.99
-6835.86
-6960.13
-7052.64
-7114.53
-7147.2
-7152.35
-7131.9
-7088.02
-7023.1
-6939.73
-6840.65
-6728.81
-6607.29
-6479.32
-6348.29
-6217.69
-6091.19
-5972.6
-5865.93
-5775.37
-5705.39
-5660.78
-5646.74
-5668.98
-5733.92
-5848.9
-6022.45
-6264.82
-6588.59
-7009.73
-7549.27
-8236.13
-9112.29
-10242.9
-11738.1
-13804.8
-16886.7
-22084.9
26001.5
20800.7
17713.6
15638.8
14132.5
12987.5
12093
11383.3
10815.6
10360.2
9994.92
9702.68
9469.68
9284.44
9137.16
9019.27
8923.15
8842
8769.62
8700.38
8629.15
8551.23
8462.36
8358.68
8236.77
8093.56
7926.45
7733.21
7512.05
7261.58
6980.85
6669.34
6326.93
5953.95
5551.1
5119.5
4660.64
4176.39
3668.92
3140.74
2594.62
2033.57
1460.81
879.728
293.83
-293.291
-878.006
-1456.69
-2025.77
-2581.75
-3121.28
-3641.17
-4138.43
-4610.32
-5054.36
-5468.35
-5850.42
-6199.02
-6512.94
-6791.33
-7033.7
-7239.89
-7410.13
-7544.97
-7645.29
-7712.32
-7747.58
-7752.87
-7730.27
-7682.13
-7610.99
-7519.63
-7411.02
-7288.31
-7154.78
-7013.91
-6869.29
-6724.65
-6583.88
-6451.01
-6330.26
-6226.03
-6142.99
-6086.1
-6060.73
-6072.74
-6128.67
-6235.94
-6403.17
-6640.61
-6960.82
-7379.7
-7918.16
-8604.94
-9481.8
-10613.6
-12110.2
-14178.4
-17261.3
-22460.1
26625.7
21424.6
18337
16261.6
14754.8
13609.3
12714.8
12005.4
11438.7
10984.7
10621.5
10331.8
10101.9
9919.99
9776.24
9661.85
9569.04
9490.77
9420.63
9352.75
9281.77
9202.77
9111.29
9003.25
8875.04
8723.44
8545.68
8339.41
8102.73
7834.19
7532.79
7197.98
6829.67
6428.2
5994.37
5529.39
5034.88
4512.85
3965.68
3396.05
2806.97
2201.7
1583.71
956.669
324.362
-309.329
-940.483
-1565.18
-2179.56
-2779.85
-3362.42
-3923.82
-4460.84
-4970.49
-5450.08
-5897.26
-6309.98
-6686.56
-7025.71
-7326.47
-7588.32
-7811.09
-7994.99
-8140.62
-8248.92
-8321.2
-8359.07
-8364.49
-8339.66
-8287.1
-8209.53
-8109.93
-7991.46
-7857.48
-7711.51
-7557.22
-7398.44
-7239.12
-7083.38
-6935.46
-6799.79
-6680.97
-6583.86
-6513.59
-6475.7
-6476.18
-6521.69
-6619.74
-6779.01
-7009.77
-7324.57
-7739.28
-8274.69
-8959.42
-9835.06
-10966.3
-12462.8
-14531
-17614.2
-22813.2
27234.7
22033.7
18946.3
16871.3
15365.2
14220.7
13327.7
12620.3
12056.1
11605.2
11245.6
10960
10734.5
10557.2
10418.2
10308.4
10219.9
10145.4
10078.3
10012.5
9942.39
9862.85
9769.2
9657.18
9522.96
9363.18
9174.9
8955.66
8703.46
8416.77
8094.54
7736.21
7341.7
6911.4
6446.17
5947.34
5416.65
4856.26
4268.75
3657
3024.25
2374.01
1710.02
1036.21
356.674
-324.422
-1002.86
-1674.41
-2334.93
-2980.36
-3606.78
-4210.5
-4788.02
-5336.16
-5852.01
-6333.03
-6777.01
-7182.14
-7547.01
-7870.62
-8152.35
-8392.03
-8589.88
-8746.52
-8862.97
-8940.59
-8981.13
-8986.65
-8959.52
-8902.4
-8818.21
-8710.11
-8581.47
-8435.86
-8277.01
-8108.83
-7935.35
-7760.77
-7589.39
-7425.7
-7274.32
-7140.05
-7027.93
-6943.28
-6891.77
-6879.55
-6913.38
-7000.86
-7150.72
-7373.29
-7681.12
-8090.02
-8620.74
-9301.82
-10174.7
-11304
-12799.1
-14866.5
-17949.1
-23147.8
27831.3
22630.7
19544
17470.2
15965.7
14823.5
13933.1
13229.1
12668.8
12222.4
11867.6
11587.4
11367.5
11196
11062.8
10958.6
10875.3
10805.4
10742.1
10679
10610.3
10530.8
10435.4
10319.7
10179.8
10012
9813.36
9581.23
9313.51
9008.6
8665.42
8283.38
7862.42
7402.98
6905.99
6372.87
5805.51
5206.25
4577.81
3923.32
3246.25
2550.35
1839.63
1118.32
390.791
-338.486
-1064.98
-1784.18
-2491.63
-3182.96
-3854
-4500.76
-5119.51
-5706.83
-6259.59
-6775.06
-7250.87
-7685.09
-8076.17
-8423.04
-8725.04
-8981.96
-9194.03
-9361.9
-9486.65
-9569.72
-9612.97
-9618.58
-9589.08
-9527.28
-9436.29
-9319.46
-9180.36
-9022.78
-8850.66
-8668.14
-8479.47
-8289.05
-8101.44
-7921.31
-7753.49
-7602.98
-7475.01
-7375.06
-7308.95
-7282.96
-7303.98
-7379.7
-7518.92
-7732
-8031.5
-8433.23
-8957.91
-9633.99
-10502.9
-11629
-13121.8
-15187.5
-18269.1
-23467.3
28417.4
23217.4
20131.9
18059.9
16557.9
15418.8
14532.2
13832.6
13277.2
12836.4
12487.7
12213.9
12000.7
11836.1
11709.5
11611.8
11534.6
11470
11411.1
11351.4
11284.7
11205.6
11108.9
10989.9
10844.5
10669
10460.1
10215.2
9931.95
9608.8
9244.57
8838.67
8391.04
7902.19
7373.11
6805.34
6200.9
5562.28
4892.42
4194.65
3472.67
2730.49
1972.41
1202.93
426.719
-351.435
-1126.7
-1894.25
-2649.33
-3387.27
-4103.61
-4794.09
-5454.72
-6081.84
-6672.11
-7222.59
-7730.77
-8194.55
-8612.29
-8982.82
-9305.44
-9579.9
-9806.45
-9985.75
-10118.9
-10207.6
-10253.6
-10259.3
-10227.3
-10160.8
-10062.8
-9937.04
-9787.23
-9617.37
-9431.63
-9234.35
-9030.03
-8823.29
-8618.88
-8421.71
-8236.79
-8069.33
-7924.74
-7808.66
-7727.07
-7686.4
-7693.62
-7756.54
-7884.03
-8086.49
-8376.52
-8769.94
-9287.44
-9957.43
-10821.3
-11943.4
-13433
-15496.4
-18576.5
-23774
28994.3
23795.1
20711.2
18641.5
17142.6
16007.3
15125.3
14431
13881.6
13447.3
13105.7
12839.3
12633.7
12476.7
12357.7
12267.3
12196.8
12138.2
12084.4
12028.5
11964.4
11886.1
11788.4
11666.5
11516
11332.9
11113.9
10856.3
10557.6
10216.2
9830.89
9401.02
8926.58
8408.1
7846.68
7243.96
6602.09
5923.74
5212.02
4470.5
3703.12
2914.14
2108.14
1289.92
464.448
-363.184
-1187.83
-2004.35
-2807.67
-3592.83
-4355.07
-5089.86
-5792.95
-6460.41
-7088.71
-7674.71
-8215.72
-8709.5
-9154.29
-9548.84
-9892.39
-10184.7
-10425.9
-10616.9
-10758.6
-10852.9
-10901.7
-10907.5
-10873.1
-10801.6
-10696.6
-10561.7
-10401
-10218.5
-10018.9
-9806.49
-9586.11
-9362.59
-9140.9
-8926.14
-8723.55
-8538.52
-8376.63
-8243.7
-8145.86
-8089.68
-8082.25
-8131.48
-8246.3
-8437.2
-8716.8
-9100.94
-9610.31
-10273.3
-11131.3
-12248.6
-13734.4
-15795.1
-18873.4
-24069.9
29562.9
24364.6
21282.5
19215.6
17720.3
16589.5
15712.8
15024.5
14481.9
14054.9
13721.1
13462.9
13265.7
13117.1
13006.5
12923.9
12860.8
12808.9
12760.7
12709.2
12648
12571
12472.7
12348.2
12192.7
12002.3
11773.5
11503.2
11189.2
10829.6
10423.1
9969.21
9467.85
8919.62
8325.67
7687.77
7008.22
6289.83
5535.93
4750.3
3937.12
3100.93
2246.58
1379.16
503.948
-373.651
-1248.17
-2114.16
-2966.23
-3799.12
-4607.77
-5387.35
-6133.37
-6841.64
-7508.42
-8130.36
-8704.59
-9228.73
-9700.92
-10119.8
-10484.6
-10794.9
-11051
-11253.8
-11404.3
-11504.3
-11555.9
-11561.8
-11524.9
-11448.5
-11336.2
-11192.1
-11020.2
-10825
-10611.1
-10383.4
-10146.6
-9905.91
-9666.51
-9433.71
-9212.93
-9009.78
-8830.01
-8679.61
-8564.87
-8492.48
-8469.67
-8504.44
-8605.82
-8784.36
-9052.72
-9426.79
-9927.25
-10582.5
-11433.9
-12545.8
-14027.4
-16084.8
-19161
-24356.5
30123.5
24926.2
21846.2
19782.3
18291.1
17165.2
16294.3
15612.7
15077.5
14658.5
14333.3
14083.9
13895.7
13756.3
13654.5
13580.5
13525.3
13480.5
13438.4
13391.8
13333.9
13258.6
13160.1
13033.2
12873.1
12675.5
12437
12154.3
11825.1
11447.3
11019.7
10541.8
10013.5
9435.45
8808.89
8135.68
7418.27
6659.66
5863.37
5033.38
4174.14
3290.44
2387.42
1470.47
545.169
-382.756
-1307.52
-2223.36
-3124.56
-4005.55
-4860.98
-5685.74
-6475.05
-7224.5
-7930.1
-8588.3
-9196.07
-9750.87
-10250.7
-10694.2
-11080.4
-11409
-11680.2
-11894.8
-12054.1
-12159.9
-12214.5
-12220.5
-12181.1
-12099.7
-11980.1
-11826.6
-11643.5
-11435.3
-11207
-10963.6
-10710.1
-10452
-10194.5
-9943.32
-9703.95
-9482.23
-9284.09
-9115.71
-8983.51
-8894.33
-8855.53
-8875.21
-8962.5
-9128.01
-9384.47
-9747.8
-10238.7
-10885.7
-11730
-12836
-14312.8
-16366.8
-19440.6
-24635
30676
25479.9
22402.1
20341.5
18854.6
17734.1
16869.6
16195.1
15667.8
15257.4
14941.2
14701.2
14522.7
14392.8
14300.5
14235.6
14188.8
14151.6
14116
14074.6
14020.5
13947.2
13848.7
13719.7
13555.2
13350.8
13102.8
12807.8
12463.4
12067.6
11619.1
11117.2
10562
9954.16
9294.97
8586.43
7831.12
7032.21
6193.42
5318.96
4413.52
3482.16
2530.3
1563.63
588.041
-390.423
-1365.66
-2331.58
-3282.14
-4211.49
-5113.95
-5984.13
-6816.98
-7607.84
-8352.5
-9047.2
-9688.72
-10274.4
-10802.1
-11270.3
-11678.1
-12025.1
-12311.5
-12538.2
-12706.4
-12818.1
-12875.6
-12881.7
-12839.8
-12753.4
-12626.5
-12463.5
-12269
-12047.8
-11804.9
-11545.6
-11275.3
-10999.5
-10723.7
-10453.7
-10195.4
-9954.8
-9737.91
-9551.12
-9401.03
-9294.59
-9239.31
-9243.39
-9316.06
-9468.01
-9712.05
-10064.1
-10545
-11183.2
-12019.9
-13119.6
-14591.4
-16641.6
-19713
-24906
31220.1
26025.1
22949.7
20892.7
19410.4
18295.6
17437.7
16770.8
16251.8
15850.4
15543.7
15313.6
15145.1
15025.3
14942.9
14887.4
14849.4
14820.2
14791.5
14755.7
14705.6
14634.6
14536.5
14405.7
14237
14026
13768.7
13461.7
13102.4
12688.7
12219.4
11693.7
11111.7
10474.1
9782.42
9038.63
8245.49
7406.33
6525.08
5606.18
4654.55
3675.52
2674.81
1658.39
632.476
-396.58
-1422.35
-2438.42
-3438.44
-4416.23
-5365.81
-6281.51
-7158.02
-7990.41
-8774.23
-9505.54
-10180.9
-10797.6
-11353.3
-11846.3
-12275.8
-12641.3
-12943
-13181.8
-13359
-13476.6
-13537.1
-13543.4
-13498.9
-13407.5
-13273.3
-13100.8
-12894.9
-12660.5
-12403
-12127.8
-11840.4
-11546.7
-11252.4
-10963.6
-10686.1
-10426.3
-10190.4
-9984.87
-9816.54
-9692.5
-9620.36
-9608.45
-9666.11
-9804.09
-10035.3
-10375.7
-10846.1
-11475.1
-12304
-13397.1
-14863.6
-16909.9
-19978.6
-25170.3
31755
26561.2
23488.3
21434.9
19957.5
18848.6
17997.7
17338.6
16828.3
16436.2
16139.4
15919.5
15761.4
15652
15579.8
15534.1
15505.2
15484.3
15462.8
15432.9
15387.2
15318.7
15221.3
15088.9
14916.3
14698.9
14432.5
14113.7
13739.7
13308.4
12818.5
12269.2
11660.7
10993.6
10269.6
9490.76
8659.98
7780.78
6857.26
5894.09
4896.44
3869.91
2820.49
1754.47
678.361
-401.165
-1477.36
-2543.48
-3592.87
-4619.02
-5615.66
-6576.84
-7496.95
-8370.84
-9193.81
-9961.72
-10671
-11318.6
-11902.3
-12420.2
-12871.4
-13255.4
-13572.5
-13823.4
-14009.7
-14133.3
-14196.8
-14203.3
-14156.3
-14059.9
-13918.4
-13736.4
-13519
-13271.5
-12999.3
-12708.1
-12403.7
-12092
-11779.2
-11471.2
-11174.5
-10895.3
-10640.2
-10415.8
-10229
-10087.1
-9997.88
-9969.71
-10012.1
-10135.8
-10353.8
-10682.3
-11142
-11761.5
-12582.3
-13668.5
-15129.6
-17171.8
-20237.7
-25428.1
32279.7
27087.3
24016.9
21967.3
20494.9
19392.1
18548.3
17897.3
17395.9
17013.3
16726.6
16517.2
16369.8
16271.1
16209.2
16173.6
16154.1
16141.7
16127.7
16103.9
16062.7
15997.1
15900.5
15766.8
15590.7
15367.1
15091.9
14761.6
14373.2
13924.6
13414.3
12841.8
12207
11510.8
10754.7
9941.17
9073.1
8154.18
7188.74
6181.65
5138.32
4064.64
2966.85
1851.55
725.567
-404.119
-1530.44
-2646.33
-3744.81
-4819.07
-5862.54
-6868.97
-7832.49
-8747.69
-9609.65
-10414
-11157
-11835.6
-12447.1
-12989.9
-13462.8
-13865.3
-14197.6
-14460.7
-14656
-14785.6
-14852.1
-14858.9
-14809.5
-14708.2
-14559.4
-14368
-14139.2
-13878.6
-13591.8
-13284.6
-12963.1
-12633.5
-12302.1
-11975.1
-11659
-11360.5
-11086.1
-10842.7
-10637.3
-10477.4
-10370.9
-10326.3
-10353.2
-10462.5
-10667.2
-10983.5
-11432.3
-12042.2
-12854.6
-13933.9
-15389.4
-17427.4
-20490.5
-25679.5
32793.1
27602
24534.2
22488.5
21021.1
19924.5
19088
18445.2
17952.8
17580
17303.6
17104.8
16968.2
16880.3
16829.1
16803.7
16793.8
16790.1
16783.7
16766.2
16729.8
16667.3
16571.7
16437
16257.4
16028
15744.3
15402.7
15000.2
14534.7
14004.5
13409
12748.4
12023.5
11235.9
10388.1
9483.24
8525.11
7518.25
6467.76
5379.28
4258.96
3113.33
1949.28
773.942
-405.395
-1581.34
-2746.52
-3893.63
-5015.55
-6105.43
-7156.71
-8163.27
-9119.43
-10020.1
-10860.6
-11637.1
-12346.3
-12985.6
-13553
-14047.4
-14468.3
-14815.9
-15091.1
-15295.4
-15431
-15500.7
-15507.7
-15456
-15349.8
-15193.8
-14993.1
-14753.1
-14479.4
-14178.1
-13855.1
-13516.7
-13169.2
-12819.3
-12473.3
-12138
-11820.1
-11526.4
-11264.1
-11040.1
-10862.3
-10738.5
-10677.4
-10688.7
-10783.5
-10974.7
-11278.8
-11716.6
-12316.8
-13120.8
-14193
-15642.9
-17676.5
-20736.8
-25924.4
33293.8
28104
25038.8
22997
21534.8
20444.5
19615.2
18980.7
18497.5
18134.5
17868.3
17680.3
17554.6
17477.7
17437.2
17422
17421.8
17426.9
17428.3
17417.2
17385.8
17326.4
17232.2
17096.6
16913.9
16678.9
16387
16034.6
15618.4
15136.2
14586.6
13968.7
13282.8
12529.7
11711.2
10829.8
9888.7
8892.03
7844.44
6751.24
5618.33
4452.1
3259.36
2047.29
823.315
-404.955
-1629.82
-2843.6
-4038.67
-5207.61
-6343.27
-7438.82
-8487.87
-9484.49
-10423.3
-11299.6
-12109.2
-12848.7
-13515.4
-14107.2
-14623
-15062.1
-15424.8
-15712
-15925.3
-16066.8
-16139.6
-16147
-16093
-15982.1
-15819
-15609.1
-15358
-15071.6
-14755.9
-14417.2
-14062.1
-13697
-13328.7
-12964
-12609.6
-12272.5
-11959.8
-11678.5
-11436.2
-11240.4
-11099.4
-11021.9
-11017.7
-11097.9
-11275.8
-11567.6
-11994.3
-12584.8
-13380.3
-14445.5
-15889.7
-17919
-20976.5
-26162.6
33780.2
28591.7
25529.2
23491.3
22034.2
20950.1
20128.2
19502
19027.8
18674.6
18418.8
18241.5
18126.8
18060.7
18031
18026.1
18035.6
18049.6
18058.7
18054.2
18027.9
17971.9
17879.1
17742.9
17557.3
17317
17017.3
16654.3
16224.9
15726.7
15158.1
14518.4
13807.8
13027.2
12178.4
11264.2
10287.7
9253.35
8165.89
7030.88
5854.44
4643.23
3404.32
2145.16
873.498
-402.772
-1675.64
-2937.1
-4179.26
-5394.37
-6575
-7714.04
-8804.83
-9841.21
-10817.6
-11729
-12571.2
-13340.5
-14034.2
-14650.1
-15186.8
-15643.9
-16021.5
-16320.6
-16542.8
-16690.3
-16766.2
-16774
-16717.8
-16602.2
-16432.3
-16213.5
-15951.5
-15652.5
-15322.7
-14968.7
-14597.1
-14214.7
-13828.4
-13445.1
-13071.9
-12715.9
-12384.3
-12084.4
-11823.9
-11610.4
-11452.3
-11358.6
-11339
-11404.9
-11569.4
-11849
-12264.8
-12845.6
-13632.7
-14690.9
-16129.4
-18154.5
-21209
-26393.7
34250.7
29063.5
26003.6
23969.6
22517.5
21439.7
20625
20007
19541.9
19198.4
18952.9
18786.2
18682.3
18627.1
18608
18613.4
18632.6
18655.4
18672.4
18674.5
18653.2
18600.7
18509.5
18372.9
18184.7
17939.4
17632.3
17259.2
16817
16303.3
15716.3
15055.5
14321
13513.7
12635.6
11689.3
10678.5
9607.41
8481.14
7305.4
6086.55
4831.48
3547.55
2242.48
924.282
-398.829
-1718.55
-3026.59
-4314.72
-5574.94
-6799.5
-7981.05
-9112.66
-10187.9
-11201.1
-12146.9
-13020.9
-13819.5
-14539.6
-15179
-15736.4
-16211.1
-16603.4
-16914.1
-17145.1
-17298.5
-17377.5
-17385.8
-17327.5
-17207.5
-17030.9
-16803.4
-16530.8
-16219.5
-15876
-15507
-15119.3
-14719.9
-14316
-13914.6
-13523
-13148.4
-12798.4
-12480.2
-12201.7
-11970.9
-11796.1
-11686.3
-11651.6
-11703.3
-11854.7
-12122.4
-12527.4
-13098.5
-13877.4
-14928.6
-16361.5
-18382.3
-21434.1
-26617.4
34703.5
29517.6
26460.3
24430.1
22983
21911.3
21103.8
20493.9
20037.6
19703.7
19468.3
19312.1
19218.8
19174.3
19165.7
19181.3
19210
19241.6
19266.4
19275
19258.9
19209.9
19120.5
18983.7
18793.1
18543.2
18229
17846.3
17391.9
16863.3
16258.7
15577.5
14819.9
13986.9
13080.4
12103.2
11059.1
9952.53
8788.67
7573.49
6313.55
5015.98
3688.39
2338.78
975.446
-393.124
-1758.33
-3111.58
-4444.38
-5748.42
-7015.68
-8238.55
-9409.85
-10522.9
-11571.8
-12551.1
-13456.2
-14283.2
-15029.1
-15691.5
-16269
-16760.9
-17167.5
-17489.7
-17729.2
-17888.5
-17970.6
-17979.5
-17919.3
-17795
-17612
-17376
-17093.2
-16770
-16413.2
-16029.6
-15626.3
-15210.4
-14789.3
-14370.3
-13960.8
-13568.2
-13200.1
-12864.2
-12568.2
-12320.4
-12129.2
-12003.8
-11954.3
-11992.2
-12130.8
-12386.6
-12781
-13342.8
-14113.6
-15157.9
-16585.3
-18602.1
-21651
-26832.9
35136.8
29952.2
26897.3
24870.8
23428.6
22362.9
21562.4
20960.4
20512.8
20188.3
19962.7
19816.7
19733.9
19699.9
19701.6
19727.1
19765.2
19805.5
19837.8
19853
19842.1
19796.7
19709.1
19572.3
19379.6
19125.4
18804.5
18412.8
17946.8
17403.9
16782.5
16081.9
15302.1
14444.4
13510.6
12503.8
11427.8
10287
9086.98
7833.83
6534.31
5195.81
3826.15
2433.61
1026.75
-385.667
-1794.76
-3191.65
-4567.57
-5913.92
-7222.44
-8485.23
-9694.89
-10844.6
-11928
-12939.7
-13874.8
-14729.4
-15500.2
-16184.9
-16781.9
-17290.6
-17711.2
-18044.5
-18292.4
-18457.4
-18542.6
-18552
-18490
-18361.7
-18172.6
-17928.5
-17635.9
-17301.3
-16931.6
-16534
-16115.6
-15683.8
-15246.2
-14810.1
-14383.2
-13973.2
-13587.7
-13234.5
-12921.6
-12657.3
-12450.3
-12309.8
-12245.9
-12270.3
-12396.4
-12640.9
-13025
-13577.6
-14340.5
-15378.2
-16800.3
-18813
-21859.2
-27039.8
35548.7
30365.3
27312.9
25290
23852.5
22792.6
21998.8
21404.4
20965.3
20649.8
20433.9
20297.8
20225.2
20201.3
20213
20248.2
20295.4
20344.1
20384
20405.6
20399.7
20358
20272.4
20135.7
19941.2
19683
19355.9
18955.7
18478.7
17922.4
17285.1
16565.9
15765.1
14883.9
13924.2
12889.1
11782.5
10609.1
9374.52
8085.07
6747.72
5370.05
3960.14
2526.5
1077.94
-376.482
-1827.63
-3266.36
-4683.62
-6070.57
-7418.67
-8719.8
-9966.29
-11151.1
-12267.8
-13310.6
-14274.7
-15155.7
-15950.6
-16656.7
-17272.6
-17797.4
-18231.4
-18575.6
-18831.6
-19002.2
-19090.5
-19100.5
-19036.9
-18904.8
-18709.9
-18458.1
-18156.1
-17810.6
-17428.7
-17017.6
-16584.8
-16137.8
-15684.2
-15231.8
-14788.3
-14361.5
-13959.2
-13589.5
-13260.3
-12980.2
-12757.9
-12602.8
-12525.2
-12536.6
-12650.7
-12884.1
-13258.3
-13802.1
-14557.4
-15588.7
-17005.5
-19014.3
-22058
-27237.2
35937.3
30755.1
27705
25685.6
24252.6
23198.3
22411
21824
21393
21086.2
20879.4
20753
20690.1
20676
20697.4
20741.9
20798
20854.8
20902
20929.8
20929
20890.9
20807.3
20670.9
20474.9
20213.1
19880.4
19472.2
18985
18416
17763.7
17027.1
16206.5
15303
14318.7
13256.9
12121.4
10917.1
9649.77
8325.9
6952.64
5537.78
4089.64
2616.94
1128.76
-365.604
-1856.76
-3335.3
-4791.92
-6217.53
-7603.33
-8940.98
-10222.6
-11440.9
-12589.3
-13661.8
-14653.5
-15559.9
-16377.8
-17104.4
-17738.3
-18278.6
-18725.6
-19080.1
-19344
-19520
-19611.3
-19622.1
-19557.1
-19421.4
-19221
-18962.1
-18651.2
-18295.4
-17901.8
-17478
-17031.4
-16569.9
-16101.3
-15633.3
-15174
-14731.2
-14312.9
-13927.4
-13582.7
-13287.5
-13050.7
-12881.6
-12790.7
-12789.7
-12892.4
-13115.3
-13479.9
-14015.4
-14763.3
-15788.5
-17200.4
-19205.5
-22246.6
-27424.6
36300.8
31119.7
28071.9
26055.7
24627.1
23578.1
22797
22217
21793.7
21495.2
21297.2
21179.9
21126.3
21121.6
21152.2
21205.6
21270.2
21334.9
21389.1
21423
21427.1
21392.5
21311.1
21175.1
20977.8
20712.8
20374.9
19959.4
19462.7
18882.1
18215.7
17462.9
16623.7
15699.4
14692.2
13605.2
12442.6
11209.3
9911.23
8554.99
7147.95
5698.1
4213.95
2704.46
1178.94
-353.086
-1881.98
-3398.08
-4891.86
-6353.96
-7775.39
-9147.56
-10462.4
-11712.4
-12890.8
-13991.5
-15009.3
-15939.7
-16779.4
-17525.5
-18176.5
-18731.6
-19190.9
-19555.3
-19826.8
-20008
-20102.3
-20113.9
-20047.5
-19908.7
-19703.2
-19437.5
-19118.4
-18752.9
-18348.4
-17912.6
-17453.1
-16978
-16495.1
-16012.4
-15538.1
-15080.3
-14646.9
-14246.5
-13887.2
-13577.7
-13327
-13144.8
-13041.4
-13028.7