/*--------------------------------*- C++ -*----------------------------------*\
  =========                 |
  \\      /  F ield         | OpenFOAM: The Open Source CFD Toolbox
   \\    /   O peration     | Website:  https://openfoam.org
    \\  /    A nd           | Version:  9
     \\/     M anipulation  |
\*---------------------------------------------------------------------------*/
FoamFile
{
    format      ascii;
    class       volScalarField;
    location    "0.25";
    object      gradTy;
}
// * * * * * * * * * * * * * * * * * * * * * * * * * * * * * * * * * * * * * //

dimensions      [0 -1 0 1 0 0 0];

internalField   nonuniform List<scalar> 
200000
(
5052.45
10123.8
13242.1
15441.1
17134.6
18516.9
19691.6
20720.3
21642.2
22483.9
23264.3
23997.1
24692.6
25358.7
26001.5
26625.7
27234.7
27831.3
28417.4
28994.3
29562.9
30123.5
30676
31220.1
31755
32279.7
32793.1
33293.8
33780.2
34250.7
34703.5
35136.8
35548.7
35937.3
36300.8
36637.5
36945.5
37223.3
37469.5
37682.5
37861.3
38004.9
38112.4
38183.3
38217.2
38213.8
38173.4
38096.1
37982.5
37833.3
37649.5
37432.3
37183
36903.1
36594.3
36258.6
35897.7
35513.9
35109.3
34686
34246.3
33792.6
33327
32851.8
32369.2
31881.3
31390.1
30897.4
30405.1
29914.8
29427.9
28945.6
28469
27999
27536.2
27080.8
26633.1
26192.9
25759.6
25332.5
24910.3
24491.6
24074.4
23656.3
23234.1
22804.1
22361.9
21901.8
21417.1
20899
20336.5
19715.4
19016.2
18211.9
17263
16107.5
14641.5
12670.6
9780.76
4938.09
2327.11
5862.5
8467.04
10461.8
12060.7
13393.3
14539.6
15550.7
16461.4
17295.7
18071.1
18800.5
19493.9
20158.7
20800.7
21424.6
22033.7
22630.7
23217.4
23795.1
24364.6
24926.2
25479.9
26025.1
26561.2
27087.3
27602
28104
28591.7
29063.5
29517.6
29952.2
30365.3
30755.1
31119.7
31457.4
31766.4
32045.2
32292.1
32505.9
32685.3
32829.4
32937.4
33008.6
33042.6
33039.4
32998.9
32921.5
32807.7
32658.2
32473.9
32256.1
32006.2
31725.5
31415.9
31079.2
30717.4
30332.5
29926.6
29502.2
29061.2
28606.2
28139.3
27662.7
27178.7
26689.4
26196.7
25702.7
25208.9
24717.2
24228.9
23745.3
23267.5
22796.2
22332.2
21875.8
21427.1
20985.9
20551.8
20123.9
19701.3
19282.2
18864.8
18446.7
18024.9
17595.7
17154.7
16696.5
16214.4
15700.1
15143.2
14530
13842.6
13056.4
12136.5
11031.2
9660.41
7894.24
5518.68
2212.49
1404.73
3912.59
6004.07
7737.01
9194.34
10445.5
11542.2
12521.9
13411.9
14232.3
14998.3
15721.5
16410.7
17072.9
17713.6
18337
18946.3
19544
20131.9
20711.2
21282.5
21846.2
22402.1
22949.7
23488.3
24016.9
24534.2
25038.8
25529.2
26003.6
26460.3
26897.3
27312.9
27705
28071.9
28411.7
28722.6
29003.2
29251.7
29466.9
29647.7
29792.8
29901.6
29973.4
30007.9
30004.9
29964.4
29886.7
29772.4
29622.2
29437.1
29218.2
28966.9
28684.7
28373.5
28034.9
27671
27284
26875.9
26449
26005.5
25547.9
25078.3
24599
24112.2
23620
23124.6
22627.7
22131.2
21636.7
21145.7
20659.5
20179.1
19705.4
19239
18780.4
18329.7
17886.7
17450.9
17021.7
16597.9
16178.1
15760.4
15342.4
14921.2
14493.4
14054.8
13600.1
13123.2
12616.3
12069.8
11471.5
10805.8
10052.1
9182.81
8160.03
6931.84
5428.6
3567.17
1289.57
998.751
2893.82
4592.43
6084.09
7392.67
8550.1
9586.11
10525.5
11388.3
12190.1
12943.3
13657.7
14341.2
15000
15638.8
16261.6
16871.3
17470.2
18059.9
18641.5
19215.6
19782.3
20341.5
20892.7
21434.9
21967.3
22488.5
22997
23491.3
23969.6
24430.1
24870.8
25290
25685.6
26055.7
26398.6
26712.5
26995.7
27246.7
27464
27646.6
27793.3
27903.4
27976.2
28011.3
28008.5
27968
27889.9
27774.9
27623.7
27437.3
27216.7
26963.5
26679.1
26365.4
26024.1
25657.2
25267
24855.4
24425
23977.8
23516.3
23042.7
22559.4
22068.4
21572.1
21072.5
20571.4
20070.8
19572.2
19077.2
18587.1
18102.9
17625.6
17155.8
16693.9
16240.1
15794.4
15356.2
14924.9
14499.5
14078.5
13660.2
13242.3
12822.1
12396.3
11960.9
11511.3
11041.5
10544.8
10012.6
9434.51
8797.64
8085.8
7278.72
6351.26
5273.4
4013.02
2546.03
882.8
779.797
2295.97
3711.28
5004.48
6177.29
7242.1
8214.52
9109.89
9941.87
10722.1
11460.3
12164.5
12841.3
13495.8
14132.5
14754.8
15365.2
15965.7
16557.9
17142.6
17720.3
18291.1
18854.6
19410.4
19957.5
20494.9
21021.1
21534.8
22034.2
22517.5
22983
23428.6
23852.5
24252.6
24627.1
24974.1
25291.8
25578.5
25832.6
26052.8
26237.8
26386.6
26498.3
26572.3
26608.3
26605.9
26565.3
26486.8
26370.9
26218.4
26030.2
25807.5
25551.7
25264.5
24947.4
24602.5
24231.8
23837.3
23421.4
22986.2
22534.1
22067.6
21588.8
21100.1
20603.8
20102
19596.9
19090.4
18584.3
18080.4
17580.1
17084.8
16595.7
16113.6
15639.3
15173.1
14715.4
14266
13824.7
13390.7
12963
12540.5
12121.3
11703.4
11284.3
10860.9
10429.5
9985.89
9524.87
9040.37
8525.16
7970.64
7366.56
6700.83
5959.4
5126.61
4186.58
3126.71
1945.09
662.815
644.711
1912.26
3123.54
4260.14
5316.98
6297.36
7208.75
8060.1
8860.42
9618
10340.2
11033.3
11702.8
12352.9
12987.5
13609.3
14220.7
14823.5
15418.8
16007.3
16589.5
17165.2
17734.1
18295.6
18848.6
19392.1
19924.5
20444.5
20950.1
21439.7
21911.3
22362.9
22792.6
23198.3
23578.1
23930
24252.4
24543.3
24801.3
25025
25213
25364.3
25478.1
25553.6
25590.6
25588.7
25548.1
25469
25352
25197.8
25007.5
24782.2
24523.4
24232.5
23911.5
23562.2
23186.7
22787.1
22365.7
21924.9
21466.8
20994.1
20508.9
20013.7
19510.8
19002.4
18490.5
17977.3
17464.6
16954.1
16447.4
15945.9
15450.7
14962.7
14482.9
14011.5
13548.9
13095.1
12649.8
12212.4
11782
11357.4
10937.1
10519.1
10101.1
9680.3
9253.38
8816.49
8365.14
7894.11
7397.36
6867.96
6298.02
5678.79
5000.89
4255.03
3433.47
2532.7
1557.62
526.476
553.961
1649.48
2711.38
3725.9
4686.83
5593.69
6449.57
7259.48
8029.15
8764.36
9470.52
10152.5
10814.6
11460.4
12093
12714.8
13327.7
13933.1
14532.2
15125.3
15712.8
16294.3
16869.6
17437.7
17997.7
18548.3
19088
19615.2
20128.2
20625
21103.8
21562.4
21998.8
22411
22797
23154.8
23482.6
23778.6
24041.1
24268.8
24460.4
24614.6
24730.8
24808.1
24846.3
24845
24804.3
24724.6
24606.3
24450.3
24257.5
24029.2
23766.7
23471.8
23146.1
22791.7
22410.7
22005.1
21577.4
21129.8
20664.8
20184.8
19692.3
19189.5
18678.9
18162.6
17643
17122
16601.5
16083.3
15569.1
15060.2
14557.9
14063.2
13576.8
13099.3
12631
12172
11722.1
11280.6
10846.9
10419.9
9998.11
9579.78
9162.78
8744.6
8322.29
7892.46
7451.2
6994.12
6516.23
6012.05
5475.63
4900.73
4281.23
3611.79
2889.05
2113.27
1290.48
434.271
489.551
1461.07
2411.42
3330.77
4213.6
5058.12
5865.27
6637.7
7379.01
8093.14
8784.03
9455.36
10110.5
10752.3
11383.3
12005.4
12620.3
13229.1
13832.6
14431
15024.5
15612.7
16195.1
16770.8
17338.6
17897.3
18445.2
18980.7
19502
20007
20493.9
20960.4
21404.4
21824
22217
22581.4
22915.3
23217
23484.7
23717
23912.5
24070.1
24189
24268.4
24307.9
24307.3
24266.6
24186.2
24066.5
23908.4
23712.9
23481.1
23214.6
22915
22584.1
22224
21836.6
21424.4
20989.5
20534.4
20061.5
19573.4
19072.5
18561.1
18041.8
17516.8
16988.3
16458.5
15929.2
15402.5
14879.7
14362.6
13852.2
13349.8
12856
12371.6
11896.9
11432
10976.7
10530.7
10093.2
9663.22
9239.57
8820.6
8404.41
7988.73
7570.98
7148.16
6716.96
6273.66
5814.22
5334.32
4829.48
4295.28
3727.75
3123.9
2482.51
1805.16
1097.18
368.231
442.13
1321.52
2187.1
3031.93
3851.62
4644.16
5409.52
6149.05
6864.96
7559.96
8236.86
8898.45
9547.3
10185.7
10815.6
11438.7
12056.1
12668.8
13277.2
13881.6
14481.9
15077.5
15667.8
16251.8
16828.3
17395.9
17952.8
18497.5
19027.8
19541.9
20037.6
20512.8
20965.3
21393
21793.7
22165.4
22506.1
22814
23087.4
23324.7
23524.6
23686
23807.9
23889.6
23930.6
23930.7
23890.1
23808.9
23687.7
23527.3
23328.7
23093.3
22822.4
22517.7
22181.1
21814.6
21420.4
21000.7
20558
20094.7
19613.2
19116.1
18606
18085.3
17556.4
17021.7
16483.5
15944
15405.2
14868.9
14336.8
13810.5
13291.4
12780.4
12278.6
11786.5
11304.6
10833.2
10372
9920.81
9479.01
9045.74
8619.85
8199.92
7784.24
7370.8
6957.32
6541.22
6119.65
5689.51
5247.5
4790.22
4314.27
3816.51
3294.3
2745.96
2171.26
1571.97
952.304
319.035
406.327
1215.77
2016.01
2802.19
3571
4320.66
5050.78
5762.03
6455.8
7133.93
7798.47
8451.49
9094.98
9730.71
10360.2
10984.7
11605.2
12222.4
12836.4
13447.3
14054.9
14658.5
15257.4
15850.4
16436.2
17013.3
17580
18134.5
18674.6
19198.4
19703.7
20188.3
20649.8
21086.2
21495.2
21874.8
22222.8
22537.4
22817
23059.8
23264.5
23429.9
23555
23639.2
23681.9
23682.9
23642.3
23560.3
23437.5
23274.7
23072.9
22833.5
22557.8
22247.7
21905
21531.8
21130.2
20702.7
20251.5
19779.3
19288.6
18782
18261.9
17731.1
17191.9
16646.9
16098.3
15548.4
14999.2
14452.7
13910.6
13374.5
12845.9
12325.8
11815.2
11314.9
10825.3
10346.7
9879.13
9422.33
8975.79
8538.77
8110.27
7689.01
7273.48
6861.91
6452.29
6042.39
5629.76
5211.82
4785.84
4349.12
3899.05
3433.3
2950.08
2448.38
1928.33
1391.45
840.898
281.348
378.822
1134.32
1883.65
2623.46
3351.33
4065.88
4766.67
5454.03
6128.89
6792.53
7446.45
8092.22
8731.34
9365.18
9994.92
10621.5
11245.6
11867.6
12487.7
13105.7
13721.1
14333.3
14941.2
15543.7
16139.4
16726.6
17303.6
17868.3
18418.8
18952.9
19468.3
19962.7
20433.9
20879.4
21297.2
21685.1
22040.9
22362.7
22648.7
22897.3
23107
23276.7
23405.3
23492.2
23536.7
23538.7
23498.1
23415.4
23290.9
23125.6
22920.5
22676.9
22396.3
22080.5
21731.4
21351
20941.8
20505.9
20045.9
19564.4
19064
18547.2
18016.8
17475.4
16925.4
16369.4
15809.9
15248.9
14688.9
14131.6
13578.9
13032.5
12493.8
11964.1
11444.3
10935.2
10437.5
9951.37
9476.98
9014.16
8562.51
8121.37
7689.89
7266.93
6851.17
6441.03
6034.75
5630.39
5225.86
4818.95
4407.4
3989.02
3561.73
3123.75
2673.77
2211.09
1735.88
1249.31
753.576
251.883
357.429
1070.87
1780.22
2483.2
3178.17
3864.13
4540.74
5208.21
5867.2
6518.65
7163.71
7803.54
8439.31
9072.06
9702.68
10331.8
10960
11587.4
12213.9
12839.3
13462.9
14083.9
14701.2
15313.6
15919.5
16517.2
17104.8
17680.3
18241.5
18786.2
19312.1
19816.7
20297.8
20753
21179.9
21576.3
21940.2
22269.4
22562.2
22816.8
23031.9
23206
23338.3
23428
23474.4
23477.4
23437
23353.5
23227.4
23059.6
22851
22603.2
22317.5
21995.9
21640.1
21252.5
20835.3
20390.8
19921.8
19430.6
18920.2
18393
17851.8
17299.4
16738.3
16171
15600.1
15027.8
14456.5
13888
13324.4
12767.3
12218.2
11678.4
11149.1
10631
10124.7
9630.79
9149.28
8680.14
8223.07
7777.52
7342.74
6917.74
6501.35
6092.17
5688.67
5289.13
4891.74
4494.61
4095.82
3693.54
3286.06
2871.94
2450.11
2020
1581.68
1135.9
684.142
228.496
340.639
1021.01
1698.76
2372.44
3040.97
3703.74
4360.55
5011.63
5657.5
6298.9
6936.71
7571.86
8205.23
8837.62
9469.68
10101.9
10734.5
11367.5
12000.7
12633.7
13265.7
13895.7
14522.7
15145.1
15761.4
16369.8
16968.2
17554.6
18126.8
18682.3
19218.8
19733.9
20225.2
20690.1
21126.3
21531.6
21903.6
22240.5
22540.2
22801
23021.5
23200.3
23336.4
23428.9
23477.4
23481.5
23441.3
23357.1
23229.4
23059
22847.1
22595
22304.2
21976.6
21614.3
21219.2
20793.9
20340.9
19862.5
19361.7
18841
18303.3
17751.2
17187.6
16615.1
16036.4
15454
14870.2
14287.3
13707.5
13132.8
12564.8
12005.1
11455.2
10916
10388.7
9873.78
9371.81
8882.99
8407.34
7944.64
7494.45
7056.11
6628.77
6211.39
5802.73
5401.43
5005.98
4614.77
4226.16
3838.49
3450.18
3059.75
2665.97
2267.88
1864.93
1457.02
1044.52
628.328
209.722
327.366
981.564
1634.21
2284.47
2931.75
3575.74
4216.44
4854.12
5489.25
6122.46
6754.48
7386.05
8017.85
8650.49
9284.44
9919.99
10557.2
11196
11836.1
12476.7
13117.1
13756.3
14392.8
15025.3
15652
16271.1
16880.3
17477.7
18060.7
18627.1
19174.3
19699.9
20201.3
20676
21121.6
21535.7
21916
22260.5
22567.2
22834.3
23060.3
23243.8
23383.7
23479.3
23529.8
23535.2
23495.2
23410.4
23281.1
23108.3
22893.1
22636.7
22341
22007.6
21638.6
21236.3
20803
20341.3
19853.8
19343.2
18812.4
18264.1
17701.2
17126.5
16542.7
15952.5
15358.5
14763.2
14168.9
13577.8
12991.9
12413
11842.8
11282.6
10733.7
10197.1
9673.49
9163.45
8667.27
8185.04
7716.62
7261.66
6819.6
6389.69
5971.01
5562.47
5162.83
4770.75
4384.81
4003.53
3625.44
3249.12
2873.26
2496.73
2118.62
1738.31
1355.51
970.302
583.076
194.514
316.796
950.127
1582.72
2214.19
2844.33
3473.11
4100.7
4727.45
5353.84
5980.44
6607.88
7236.77
7867.66
8501.02
9137.16
9776.24
10418.2
11062.8
11709.5
12357.7
13006.5
13654.5
14300.5
14942.9
15579.8
16209.2
16829.1
17437.2
18031
18608
19165.7
19701.6
20213
20697.4
21152.2
21575
21963.6
22315.7
22629.3
22902.6
23134.1
23322.3
23466.1
23564.6
23617.4
23624
23584.4
23499
23368.3
23193.2
22974.8
22714.4
22413.8
22074.8
21699.4
21289.9
20848.9
20378.8
19882.3
19362.3
18821.6
18263
17689.5
17103.8
16509
15907.6
15302.3
14695.7
14090.2
13487.9
12891.1
12301.5
11720.9
11150.7
10592.2
10046.5
9514.32
8996.33
8492.88
8004.13
7530.02
7070.27
6624.42
6191.81
5771.61
5362.85
4964.41
4575.08
4193.56
3818.52
3448.62
3082.54
2719.07
2357.12
1995.78
1634.35
1272.37
909.62
546.129
182.107
308.298
924.845
1541.26
2157.54
2773.78
3390.17
4007.05
4624.86
5244.1
5865.34
6489.14
7116.03
7746.47
8380.82
9019.27
9661.85
10308.4
10958.6
11611.8
12267.3
12923.9
13580.5
14235.6
14887.4
15534.1
16173.6
16803.7
17422
18026.1
18613.4
19181.3
19727.1
20248.2
20741.9
21205.6
21637
22033.5
22393
22713.3
22992.8
23229.6
23422.4
23570
23671.6
23726.5
23734.5
23695.4
23609.6
23477.7
23300.4
23079.1
22814.9
22509.7
22165.3
21783.9
21367.7
20919.2
20441.1
19936.1
19407
18856.8
18288.4
17704.7
17108.6
16503.1
15891
15274.9
14657.4
14041.1
13428.2
12820.8
12220.9
11630.3
11050.5
10482.8
9928.25
9387.84
8862.19
8351.73
7856.67
7377.03
6912.61
6463.01
6027.66
5605.82
5196.61
4799.01
4411.91
4034.1
3664.35
3301.41
2944.05
2591.09
2241.47
1894.22
1548.56
1203.87
859.702
515.767
171.916
301.374
904.234
1507.44
2111.28
2716.09
3322.26
3930.27
4540.65
5153.95
5770.74
6391.56
7016.88
7647.1
8282.49
8923.15
9569.04
10219.9
10875.3
11534.6
12196.8
12860.8
13525.3
14188.8
14849.4
15505.2
16154.1
16793.8
17421.8
18035.6
18632.6
19210
19765.2
20295.4
20798
21270.2
21709.6
22113.7
22480.2
22807.1
23092.4
23334.4
23531.7
23683
23787.6
23844.7
23854
23815.5
23729.5
23596.5
23417.4
23193.4
22925.9
22616.5
22267.2
21880.1
21457.7
21002.3
20516.8
20003.8
19466.3
18907.2
18329.6
17736.4
17130.6
16515.1
15892.8
15266.6
14638.9
14012.5
13389.5
12772.3
12162.8
11562.7
10973.9
10397.4
9834.69
9286.53
8753.66
8236.6
7735.6
7250.75
6781.9
6328.74
5890.75
5467.27
5057.5
4660.49
4275.2
3900.53
3535.29
3178.3
2828.37
2484.35
2145.15
1809.78
1477.35
1147.09
818.371
490.65
163.49
295.614
887.083
1479.28
2072.71
2667.91
3265.46
3865.94
4469.97
5078.15
5691.08
6309.28
6933.19
7563.17
8199.42
8842
9490.77
10145.4
10805.4
11470
12138.2
12808.9
13480.5
14151.6
14820.2
15484.3
16141.7
16790.1
17426.9
18049.6
18655.4
19241.6
19805.5
20344.1
20854.8
21334.9
21781.7
22192.9
22566
22898.9
23189.7
23436.6
23638.1
23793
23900.5
23959.8
23970.5
23932.7
23846.7
23712.9
23532.3
23306
23035.5
22722.4
22368.8
21976.7
21548.7
21087.2
20594.9
20074.7
19529.6
18962.5
18376.5
17774.7
17160
16535.4
15904
15268.5
14631.5
13995.8
13363.7
12737.5
12119.1
11510.5
10913.4
10329
9758.76
9203.51
8664.07
8140.99
7634.58
7144.99
6672.11
6215.7
5775.31
5350.32
4940
4543.47
4159.76
3787.79
3426.45
3074.59
2731.05
2394.67
2064.35
1739.05
1417.79
1099.67
783.885
469.708
156.467
290.68
872.381
1455.11
2039.56
2626.42
3216.42
3810.25
4408.6
5012.13
5621.45
6237.09
6859.49
7488.96
8125.67
8769.62
9420.63
10078.3
10742.1
11411.1
12084.4
12760.7
13438.4
14116
14791.5
15462.8
16127.7
16783.7
17428.3
18058.7
18672.4
19266.4
19837.8
20384
20902
21389.1
21842.7
22260.2
22639.3
22977.7
23273.5
23524.9
23730.4
23888.7
23998.9
24060.3
24072.5
24035.6
23949.7
23815.4
23633.6
23405.5
23132.6
22816.4
22459.1
22062.9
21630
21163.2
20665.2
20138.8
19587
19013
18419.7
17810.3
17187.8
16555.3
15915.8
15272.1
14627.1
13983.2
13343
12708.9
12082.7
11466.6
10862.2
10270.9
9693.96
9132.51
8587.31
8058.97
7547.85
7054.14
6577.79
6118.6
5676.18
5249.96
4839.26
4443.25
4060.99
3691.47
3333.61
2986.27
2648.3
2318.55
1995.89
1679.22
1367.47
1059.65
754.816
452.068
150.553
286.283
859.27
1433.52
2009.89
2589.19
3172.27
3759.9
4352.86
4951.85
5557.51
6170.37
6790.88
7419.32
8055.84
8700.38
9352.75
10012.5
10679
11351.4
12028.5
12709.2
13391.8
14074.6
14755.7
15432.9
16103.9
16766.2
17417.2
18054.2
18674.5
19275
19853
20405.6
20929.8
21423
21882.4
22305.4
22689.7
23033
23333.2
23588.6
23797.7
23959.1
24071.8
24135.3
24149.1
24113.1
24027.6
23893.2
23710.7
23481.3
23206.5
22888.1
22527.9
22128.3
21691.6
21220.5
20717.8
20186.3
19629.1
19049.3
18450
17834.3
17205.4
16566.3
15920.1
15269.6
14617.8
13967.1
13320.2
12679.4
12046.8
11424.4
10813.8
10216.7
9634.31
9067.71
8517.76
7985.09
7470.13
6973.09
6493.98
6032.64
5588.71
5161.69
4750.91
4355.6
3974.86
3607.7
3253.07
2909.84
2576.87
2252.99
1937.05
1627.89
1324.38
1025.43
729.983
437.009
145.507
282.175
847.012
1413.31
1982.03
2554.11
3130.48
3712
4299.51
4893.74
5495.38
6104.97
6722.94
7349.58
7985
8629.15
9281.77
9942.39
10610.3
11284.7
11964.4
12648
13333.9
14020.5
14705.6
15387.2
16062.7
16729.8
17385.8
18027.9
18653.2
19258.9
19842.1
20399.7
20929
21427.1
21891.2
22318.8
22707.4
23054.7
23358.7
23617.6
23829.7
23993.9
24109
24174.4
24189.7
24154.9
24070.1
23935.9
23753.2
23523.1
23247.2
22927.3
22565.1
22163.2
21723.8
21249.6
20743.4
20208.2
19647
19062.9
18459
17838.6
17204.7
16560.6
15909.2
15253.6
14596.5
13940.6
13288.5
12642.5
12004.9
11377.6
10762.4
10160.9
9574.26
9003.75
8450.22
7914.34
7396.57
6897.17
6416.17
5953.45
5508.7
5081.44
4671.06
4276.79
3897.78
3533.06
3181.59
2842.25
2513.92
2195.39
1885.49
1583.02
1286.79
995.63
708.386
423.924
141.124
278.143
834.967
1393.4
1954.51
2519.33
3088.84
3663.99
4245.66
4834.64
5431.61
6037.15
6651.69
7275.51
7908.71
8551.23
9202.77
9862.85
10530.8
11205.6
11886.1
12571
13258.6
13947.2
14634.6
15318.7
15997.1
16667.3
17326.4
17971.9
18600.7
19209.9
19796.7
20358
20890.9
21392.5
21860.2
22291.2
22683.1
23033.5
23340.5
23602.2
23816.9
23983.4
24100.7
24167.9
24184.8
24151.1
24067.3
23933.7
23751.4
23521.3
23245.2
22924.6
22561.6
22158.4
21717.5
21241.5
20733.4
20195.9
19632.2
19045.4
18438.6
17815.2
17178.2
16530.8
15876
15216.9
14556.4
13897
13241.5
12592.1
11951.2
11320.7
10702.4
10097.9
9508.64
8935.66
8379.92
7842.11
7322.74
6822.09
6340.23
5877.07
5432.33
5005.56
4596.17
4203.45
3826.54
3464.5
3116.3
2780.84
2456.97
2143.5
1839.21
1542.86
1253.24
969.082
689.177
412.298
137.232
273.999
822.577
1372.89
1926.07
2483.23
3045.41
3613.62
4188.77
4771.69
5363.09
5963.56
6573.53
7193.29
7822.93
8462.36
9111.29
9769.2
10435.4
11108.9
11788.4
12472.7
13160.1
13848.7
14536.5
15221.3
15900.5
16571.7
17232.2
17879.1
18509.5
19120.5
19709.1
20272.4
20807.3
21311.1
21780.9
22214
22608.1
22960.7
23269.8
23533.5
23750.2
23918.6
24037.6
24106.5
24124.9
24092.7
24010.1
23877.6
23696.2
23466.9
23191.4
22871.2
22508.4
22105.3
21664.3
21188
20679.4
20141.3
19576.9
18989.2
18381.4
17756.8
17118.6
16469.9
15813.8
15153.2
14491.2
13830.3
13173.3
12522.5
11880.1
11248.2
10628.7
10023.1
9432.73
8858.87
8302.44
7764.16
7244.55
6743.93
6262.39
5799.87
5356.12
4930.71
4523.09
4132.55
3758.26
3399.3
3054.65
2723.22
2403.84
2095.33
1796.43
1505.9
1222.44
944.779
671.625
401.689
133.682
269.581
809.355
1350.96
1895.58
2444.38
2998.47
3558.89
4126.58
4702.39
5287.07
5881.21
6485.26
7099.48
7723.99
8358.68
9003.25
9657.18
10319.7
10989.9
11666.5
12348.2
13033.2
13719.7
14405.7
15088.9
15766.8
16437
17096.6
17742.9
18372.9
18983.7
19572.3
20135.7
20670.9
21175.1
21645.5
22079.5
22474.4
22828
23138.2
23403.2
23621.2
23790.9
23911.4
23981.8
24001.7
23971
23890
23759.1
23579.3
23351.6
23077.5
22758.9
22397.6
21995.9
21556.3
21081.4
20574
20037.1
19473.8
18887.2
18280.4
17656.8
17019.5
16371.6
15716.2
15056.4
14395
13734.9
13078.5
12428.3
11786.6
11155.4
10536.5
9931.65
9342.14
8769.19
8213.76
7676.62
7158.29
6659.12
6179.23
5718.58
5276.94
4853.91
4448.95
4061.38
3690.39
3335.06
2994.4
2667.31
2352.63
2049.16
1755.64
1470.79
1193.3
921.848
655.099
391.714
130.347
264.747
794.876
1326.9
1862.06
2401.56
2946.53
3498.05
4057.09
4624.53
5201.12
5787.46
6384.01
6991.04
7608.66
8236.77
8875.04
9522.96
10179.8
10844.5
11516
12192.7
12873.1
13555.2
14237
14916.3
15590.7
16257.4
16913.9
17557.3
18184.7
18793.1
19379.6
19941.2
20474.9
20977.8
21447.2
21880.3
22274.8
22628.2
22938.4
23203.7
23422.2
23592.8
23714.3
23785.9
23807.3
23778.4
23699.3
23570.5
23392.9
23167.6
22896.2
22580.2
22221.7
21822.9
21386.3
20914.4
20410.2
19876.4
19316.3
18732.9
18129.3
17508.9
16874.7
16230
15577.7
14921
14262.7
13605.5
12952.1
12304.9
11666
11037.7
10421.7
9819.61
9232.92
8662.79
8110.22
7575.97
7060.59
6564.44
6087.67
5630.25
5191.97
4772.46
4371.2
3987.52
3620.63
3269.63
2933.53
2611.25
2301.63
2003.46
1715.48
1436.38
1164.85
899.531
639.054
382.044
127.116
259.374
778.773
1300.12
1824.68
2353.67
2888.28
3429.58
3978.58
4536.16
5103.09
5679.97
6267.27
6865.27
7474.07
8093.56
8723.44
9363.18
10012
10669
11332.9
12002.3
12675.5
13350.8
14026
14698.9
15367.1
16028
16678.9
17317
17939.4
18543.2
19125.4
19683
20213.1
20712.8
21179.4
21610.2
22002.7
22354.5
22663.7
22928.2
23146.5
23317.3
23439.4
23512.1
23534.9
23507.8
23431
23304.8
23130.2
22908.3
22640.4
22328.4
21974.1
21579.8
21147.9
20680.9
20181.7
19653.2
19098.4
18520.4
17922.4
17307.6
16679
16039.9
15393.2
14742.1
14089.3
13437.7
12789.7
12147.8
11514.3
10891.1
10280.3
9683.23
9101.5
8536.27
7988.53
7459.06
6948.42
6456.99
5984.93
5532.22
5098.69
4683.97
4287.56
3908.82
3546.96
3201.12
2870.3
2553.43
2249.37
1956.91
1674.78
1401.68
1136.26
877.171
623.014
372.392
123.894
253.358
760.734
1270.08
1782.69
2299.8
2822.6
3352.18
3889.56
4435.63
4991.15
5556.75
6132.89
6719.86
7317.74
7926.45
8545.68
9174.9
9813.36
10460.1
11113.9
11773.5
12437
13102.8
13768.7
14432.5
15091.9
15744.3
16387
17017.3
17632.3
18229
18804.5
19355.9
19880.4
20374.9
20836.8
21263.5
21652.4
22001.3
22308.1
22570.9
22788.1
22958.4
23080.6
23154.1
23178.4
23153.3
23079
22956
22785.1
22567.5
22304.4
21997.6
21649
21260.8
20835.4
20375.2
19883.2
19362.1
18814.9
18244.7
17654.7
17047.9
16427.5
15796.6
15158.2
14515.3
13870.8
13227.2
12587.3
11953.4
11327.6
10712.2
10108.8
9519.22
8944.73
8386.59
7845.79
7323.11
6819.13
6334.22
5868.57
5422.18
4994.88
4586.33
4196.04
3823.39
3467.62
3127.86
2803.15
2492.43
2194.57
1908.35
1632.53
1365.8
1106.81
854.201
606.572
362.512
120.599
246.611
740.497
1236.37
1735.51
2239.18
2748.56
3264.75
3788.77
4321.52
4863.76
5416.11
5979.04
6552.83
7137.59
7733.21
8339.41
8955.66
9581.23
10215.2
10856.3
11503.2
12154.3
12807.8
13461.7
14113.7
14761.6
15402.7
16034.6
16654.3
17259.2
17846.3
18412.8
18955.7
19472.2
19959.4
20414.7
20835.4
21219.2
21563.7
21866.8
22126.8
22342
22511.1
22633
22706.9
22732.5
22709.6
22638.2
22519
22352.6
22140.2
21883
21582.8
21241.5
20861.1
20443.9
19992.6
19509.9
18998.4
18461.2
17901.4
17321.8
16725.8
16116.2
15496.3
14868.9
14237
13603.3
12970.7
12341.5
11718.2
11103
10497.8
9904.53
9324.76
8759.9
8211.14
7679.48
7165.71
6670.39
6193.92
5736.48
5298.1
4878.62
4477.71
4094.9
3729.59
3381.05
3048.42
2730.76
2427.03
2136.1
1856.79
1587.85
1327.99
1075.87
830.134
589.377
352.194
117.159
239.062
717.849
1198.61
1682.64
2171.17
2665.39
3166.4
3675.21
4192.71
4719.66
5256.68
5804.23
6362.61
6931.91
7512.05
8102.73
8703.46
9313.51
9931.95
10557.6
11189.2
11825.1
12463.4
13102.4
13739.7
14373.2
15000.2
15618.4
16224.9
16817
17391.9
17946.8
18478.7
18985
19462.7
19909.3
20322.3
20699.1
21037.7
21335.8
21591.8
21804.1
21971.2
22092.2
22166.4
22193.2
22172.5
22104.5
21989.5
21828.4
21622.2
21372.2
21080
20747.4
20376.5
19969.7
19529.3
19058
18558.5
18033.8
17486.7
16920.4
16337.7
15741.8
15135.5
14522
13903.9
13284.1
12665.1
12049.5
11439.7
10837.6
10245.4
9664.84
9097.47
8544.7
8007.72
7487.49
6984.81
6500.25
6034.21
5586.87
5158.27
4748.27
4356.55
3982.67
3626.05
3285.96
2961.59
2652
2356.18
2073.03
1801.38
1540
1287.63
1042.93
804.558
571.134
341.258
113.515
230.657
692.624
1156.54
1623.69
2095.29
2572.52
3056.45
3548.09
4048.31
4557.88
5077.4
5607.33
6147.97
6699.41
7261.58
7834.19
8416.77
9008.6
9608.8
10216.2
10829.6
11447.3
12067.6
12688.7
13308.4
13924.6
14534.7
15136.2
15726.7
16303.3
16863.3
17403.9
17922.4
18416
18882.1
19318
19721.2
20089.4
20420.4
20712.2
20963
21171.3
21335.7
21455.3
21529.3
21557.3
21539
21474.6
21364.5
21209.5
21010.5
20768.8
20485.9
20163.8
19804.2
19409.5
18982.1
18524.5
18039.4
17529.7
16998
16447.5
15881
15301.5
14711.9
14115
13513.7
12910.6
12308.3
11709.1
11115.5
10529.5
9953.01
9387.81
8835.45
8297.31
7774.54
7268.1
6778.77
6307.13
5853.56
5418.27
5001.29
4602.49
4221.58
3858.14
3511.6
3181.26
2866.34
2565.92
2279.02
2004.57
1741.42
1488.37
1244.18
1007.54
777.132
551.597
329.556
109.618
221.355
664.705
1109.97
1558.4
2011.2
2469.51
2934.4
3406.84
3887.71
4377.74
4877.53
5387.54
5908.06
6439.19
6980.85
7532.79
8094.54
8665.42
9244.57
9830.89
10423.1
11019.7
11619.1
12219.4
12818.5
13414.3
14004.5
14586.6
15158.1
15716.3
16258.7
16782.5
17285.1
17763.7
18215.7
18638.8
19030.3
19388
19709.8
19993.9
20238.3
20441.6
20602.6
20720.2
20793.7
20822.7
20806.9
20746.5
20641.8
20493.6
20302.9
20070.7
19798.7
19488.5
19142
18761.5
18349.2
17907.6
17439.3
16946.9
16433.4
15901.4
15353.9
14793.6
14223.5
13646.3
13064.6
12481.2
11898.4
11318.7
10744.2
10177
9619.06
9071.97
8537.28
8016.33
7510.26
7020.01
6546.33
6089.8
5650.8
5229.53
4826.05
4440.22
4071.79
3720.35
3385.34
3066.1
2761.88
2471.79
2194.87
1930.09
1676.34
1432.46
1197.21
969.353
747.579
530.566
316.969
105.428
211.131
634.018
1058.77
1486.59
1918.67
2356.11
2799.95
3251.14
3710.53
4178.83
4656.64
5144.4
5642.39
6150.73
6669.34
7197.98
7736.21
8283.38
8838.67
9401.02
9969.21
10541.8
11117.2
11693.7
12269.2
12841.8
13409
13968.7
14518.4
15055.5
15577.5
16081.9
16565.9
17027.1
17462.9
17870.9
18248.7
18594.2
18905.3
19180.1
19416.9
19614.2
19770.9
19886
19958.6
19988.5
19975.3
19919.2
19820.5
19679.9
19498.3
19276.9
19017.1
18720.5
18389
18024.5
17629.5
17206.1
16756.9
16284.6
15791.7
15281
14755.2
14217.1
13669.4
13114.7
12555.7
11994.9
11434.6
10877.2
10324.8
9779.3
9242.62
8716.37
8202.01
7700.85
7213.98
6742.32
6286.61
5847.41
5425.08
5019.85
4631.77
4260.72
3906.45
3568.58
3246.58
2939.84
2647.6
2369.03
2103.2
1849.13
1605.73
1371.88
1146.41
928.099
715.685
507.888
303.403
100.913
199.977
600.533
1002.89
1408.21
1817.63
2232.23
2653
3080.87
3516.65
3961.03
4414.6
4877.78
5350.85
5833.92
6326.93
6829.67
7341.7
7862.42
8391.04
8926.58
9467.85
10013.5
10562
11111.7
11660.7
12207
12748.4
13282.8
13807.8
14321
14819.9
15302.1
15765.1
16206.5
16623.7
17014.6
17376.8
17708.2
18006.8
18271
18498.9
18689.3
18840.9
18952.8
19024.2
19054.8
19044.3
18992.8
18900.6
18768.4
18597
18387.5
18141.3
17859.8
17544.9
17198.6
16822.8
16419.9
15992.3
15542.4
15072.8
14586
14084.8
13571.6
13049.2
12520
11986.6
11451.3
10916.5
10384.3
9856.79
9335.87
8823.27
8320.58
7829.21
7350.41
6885.24
6434.57
5999.14
5579.47
5175.93
4788.75
4417.96
4063.49
3725.08
3402.38
3094.9
2802.03
2523.08
2257.24
2003.64
1761.32
1529.26
1306.38
1091.54
883.581
681.296
483.451
288.792
96.0505
187.897
564.265
942.353
1323.28
1708.13
2097.92
2493.63
2896.12
3306.19
3724.49
4151.58
4587.88
5033.66
5489.03
5953.95
6428.2
6911.4
7402.98
7902.19
8408.1
8919.62
9435.45
9954.16
10474.1
10993.6
11510.8
12023.5
12529.7
13027.2
13513.7
13986.9
14444.4
14883.9
15303
15699.4
16071
16415.6
16731.2
17015.8
17267.9
17485.8
17668.1
17813.8
17921.9
17991.8
18022.9
18015.2
17968.6
17883.4
17760.3
17600.1
17403.6
17172.3
16907.5
16611
16284.6
15930.2
15550
15146.2
14721.2
14277.4
13817.2
13343.2
12857.8
12363.5
11862.6
11357.7
10850.9
10344.4
9840.25
9340.5
8846.91
8361.13
7884.69
7418.92
6965.02
6524
6096.7
5683.82
5285.87
4903.21
4536.05
4184.45
3848.33
3527.47
3221.53
2930.04
2652.46
2388.1
2136.22
1895.99
1666.49
1446.76
1235.77
1032.45
835.677
644.315
457.184
273.092
90.8271
174.908
525.27
877.26
1231.94
1590.33
1953.41
2322.1
2697.21
3079.5
3469.61
3868.05
4275.23
4691.41
5116.71
5551.1
5994.37
6446.17
6905.99
7373.11
7846.68
8325.67
8808.89
9294.97
9782.42
10269.6
10754.7
11235.9
11711.2
12178.4
12635.6
13080.4
13510.6
13924.2
14318.7
14692.2
15042.5
15367.6
15665.5
15934.6
16173.2
16379.8
16553.1
16692.1
16795.8
16863.7
16895.3
16890.3
16848.9
16771.3
16658
16509.7
16327.4
16112.3
15865.8
15589.3
15284.5
14953.5
14598.1
14220.4
13822.7
13407.2
12976.2
12532
12077.1
11613.6
11143.9
10670.1
10194.6
9719.19
9245.96
8776.71
8313.17
7856.89
7409.3
6971.68
6545.15
6130.67
5729.05
5340.94
4966.84
4607.1
4261.91
3931.35
3615.33
3313.67
3026.04
2752.02
2491.09
2242.62
2005.91
1780.17
1564.56
1358.15
1160
969.072
784.333
604.697
429.056
256.283
85.2355
161.044
483.643
807.767
1134.41
1464.54
1799.06
2138.83
2484.64
2837.18
3197.05
3564.75
3940.66
4325.04
4717.99
5119.5
5529.39
5947.34
6372.87
6805.34
7243.96
7687.77
8135.68
8586.43
9038.63
9490.76
9941.17
10388.1
10829.8
11264.2
11689.3
12103.2
12503.8
12889.1
13256.9
13605.2
13932.2
14235.9
14514.6
14766.6
14990.3
15184.5
15347.8
15479.3
15578.1
15643.6
15675.4
15673.3
15637.3
15567.6
15464.7
15329.3
15162.3
14964.6
14737.6
14482.7
14201.5
13895.6
13567.1
13217.7
12849.5
12464.6
12065.2
11653.5
11231.5
10801.5
10365.6
9925.82
9484.18
9042.61
8602.93
8166.84
7735.96
7311.74
6895.52
6488.49
6091.72
5706.09
5332.37
4971.19
4622.99
4288.13
3966.79
3659.04
3364.83
3083.96
2816.16
2561.04
2318.1
2086.78
1866.41
1656.28
1455.59
1263.49
1079.09
901.441
729.564
562.452
399.071
238.368
79.2765
146.348
439.516
734.097
1031.01
1331.15
1635.36
1944.44
2259.11
2580.02
2907.73
3242.71
3585.31
3935.78
4294.23
4660.64
5034.88
5416.65
5805.51
6200.9
6602.09
7008.22
7418.27
7831.12
8245.49
8659.98
9073.1
9483.24
9888.7
10287.7
10678.5
11059.1
11427.8
11782.5
12121.4
12442.6
12744.4
13025
13282.8
13516.2
13723.8
13904.3
14056.7
14179.9
14273.2
14336
14367.8
14368.6
14338.2
14276.9
14185
14063.3
13912.4
13733.4
13527.3
13295.5
13039.3
12760.5
12460.7
12141.6
11805.1
11453.1
11087.6
10710.7
10324.2
9930.15
9530.54
9127.24
8722.1
8316.88
7913.28
7512.87
7117.12
6727.4
6344.94
5970.84
5606.08
5251.5
4907.81
4575.58
4255.26
3947.15
3651.45
3368.22
3097.42
2838.88
2592.36
2357.49
2133.83
1920.86
1717.98
1524.53
1339.77
1162.92
993.174
829.649
671.446
517.637
367.268
219.369
72.9576
130.875
393.058
656.531
922.135
1190.68
1462.95
1739.67
2021.49
2309.02
2602.78
2903.19
3210.59
3525.19
3847.13
4176.39
4512.85
4856.26
5206.25
5562.28
5923.74
6289.83
6659.66
7032.21
7406.33
7780.78
8154.18
8525.11
8892.03
9253.35
9607.41
9952.53
10287
10609.1
10917.1
11209.3
11484.1
11740
11975.3
12188.8