/*--------------------------------*- C++ -*----------------------------------*\
  =========                 |
  \\      /  F ield         | OpenFOAM: The Open Source CFD Toolbox
   \\    /   O peration     | Website:  https://openfoam.org
    \\  /    A nd           | Version:  9
     \\/     M anipulation  |
\*---------------------------------------------------------------------------*/
FoamFile
{
    format      ascii;
    class       volScalarField;
    location    "0.25";
    object      gradTz;
}
// * * * * * * * * * * * * * * * * * * * * * * * * * * * * * * * * * * * * * //

dimensions      [0 -1 0 1 0 0 0];

internalField   nonuniform List<scalar> 
200000
(
-6343.26
-6865.66
-7019.12
-7074.98
-7099.49
-7111.9
-7118.88
-7123.11
-7125.81
-7127.61
-7128.84
-7129.7
-7130.3
-7130.74
-7131.04
-7131.26
-7131.42
-7131.52
-7131.59
-7131.63
-7131.65
-7131.65
-7131.64
-7131.62
-7131.6
-7131.57
-7131.54
-7131.5
-7131.47
-7131.43
-7131.4
-7131.36
-7131.33
-7131.3
-7131.27
-7131.24
-7131.22
-7131.19
-7131.18
-7131.16
-7131.15
-7131.14
-7131.13
-7131.13
-7131.13
-7131.13
-7131.14
-7131.15
-7131.17
-7131.18
-7131.21
-7131.23
-7131.25
-7131.28
-7131.32
-7131.35
-7131.39
-7131.42
-7131.46
-7131.51
-7131.55
-7131.59
-7131.64
-7131.68
-7131.73
-7131.78
-7131.82
-7131.87
-7131.91
-7131.96
-7132
-7132.04
-7132.08
-7132.11
-7132.14
-7132.17
-7132.19
-7132.19
-7132.19
-7132.18
-7132.14
-7132.08
-7132
-7131.87
-7131.7
-7131.46
-7131.13
-7130.67
-7130.03
-7129.15
-7127.89
-7126.07
-7123.34
-7119.08
-7112.07
-7099.63
-7075.09
-7019.19
-6865.71
-6343.28
-6865.66
-7870.08
-8224.76
-8369.36
-8436.89
-8472.22
-8492.44
-8504.81
-8512.76
-8518.07
-8521.71
-8524.25
-8526.06
-8527.34
-8528.26
-8528.91
-8529.37
-8529.68
-8529.88
-8530
-8530.05
-8530.06
-8530.04
-8529.98
-8529.91
-8529.82
-8529.72
-8529.62
-8529.51
-8529.4
-8529.3
-8529.19
-8529.09
-8529
-8528.91
-8528.83
-8528.75
-8528.69
-8528.63
-8528.59
-8528.55
-8528.52
-8528.5
-8528.5
-8528.5
-8528.51
-8528.53
-8528.57
-8528.61
-8528.66
-8528.72
-8528.79
-8528.87
-8528.96
-8529.06
-8529.16
-8529.27
-8529.38
-8529.5
-8529.63
-8529.75
-8529.89
-8530.02
-8530.16
-8530.3
-8530.44
-8530.58
-8530.72
-8530.86
-8530.99
-8531.12
-8531.24
-8531.35
-8531.45
-8531.54
-8531.62
-8531.67
-8531.69
-8531.69
-8531.64
-8531.54
-8531.37
-8531.11
-8530.74
-8530.22
-8529.5
-8528.51
-8527.15
-8525.27
-8522.64
-8518.92
-8513.53
-8505.49
-8493.03
-8472.73
-8437.3
-8369.69
-8224.99
-7870.22
-6865.71
-7019.12
-8224.76
-8689.71
-8893.3
-8993.38
-9047.59
-9079.3
-9098.98
-9111.77
-9120.35
-9126.27
-9130.42
-9133.37
-9135.48
-9136.98
-9138.05
-9138.8
-9139.31
-9139.64
-9139.83
-9139.92
-9139.93
-9139.88
-9139.79
-9139.67
-9139.52
-9139.36
-9139.18
-9139
-9138.82
-9138.65
-9138.47
-9138.31
-9138.15
-9138
-9137.86
-9137.74
-9137.63
-9137.54
-9137.46
-9137.4
-9137.35
-9137.32
-9137.31
-9137.31
-9137.34
-9137.37
-9137.43
-9137.5
-9137.59
-9137.69
-9137.81
-9137.94
-9138.08
-9138.24
-9138.41
-9138.59
-9138.79
-9138.99
-9139.19
-9139.41
-9139.63
-9139.86
-9140.09
-9140.32
-9140.56
-9140.79
-9141.02
-9141.25
-9141.47
-9141.68
-9141.89
-9142.07
-9142.25
-9142.4
-9142.52
-9142.61
-9142.65
-9142.64
-9142.56
-9142.4
-9142.12
-9141.7
-9141.09
-9140.23
-9139.05
-9137.43
-9135.19
-9132.12
-9127.83
-9121.77
-9113.05
-9100.12
-9080.29
-9048.43
-8994.07
-8893.84
-8690.09
-8224.99
-7019.19
-7074.98
-8369.36
-8893.3
-9133.83
-9256.87
-9325.57
-9366.67
-9392.58
-9409.6
-9421.14
-9429.13
-9434.76
-9438.78
-9441.65
-9443.71
-9445.17
-9446.2
-9446.89
-9447.34
-9447.6
-9447.72
-9447.73
-9447.66
-9447.53
-9447.35
-9447.14
-9446.91
-9446.67
-9446.42
-9446.17
-9445.92
-9445.67
-9445.44
-9445.22
-9445.01
-9444.82
-9444.65
-9444.5
-9444.36
-9444.25
-9444.17
-9444.1
-9444.06
-9444.04
-9444.05
-9444.08
-9444.14
-9444.21
-9444.31
-9444.43
-9444.58
-9444.74
-9444.93
-9445.13
-9445.35
-9445.59
-9445.84
-9446.11
-9446.39
-9446.68
-9446.99
-9447.3
-9447.61
-9447.94
-9448.26
-9448.59
-9448.92
-9449.24
-9449.56
-9449.87
-9450.17
-9450.45
-9450.72
-9450.96
-9451.17
-9451.35
-9451.47
-9451.54
-9451.53
-9451.42
-9451.19
-9450.82
-9450.24
-9449.4
-9448.23
-9446.61
-9444.38
-9441.33
-9437.14
-9431.32
-9423.13
-9411.4
-9394.18
-9368.05
-9326.75
-9257.83
-9134.58
-8893.84
-8369.69
-7075.09
-7099.49
-8436.89
-8993.38
-9256.87
-9395.64
-9475.08
-9523.53
-9554.56
-9575.17
-9589.26
-9599.09
-9606.06
-9611.04
-9614.61
-9617.18
-9619
-9620.28
-9621.14
-9621.7
-9622.02
-9622.16
-9622.17
-9622.07
-9621.9
-9621.67
-9621.4
-9621.1
-9620.79
-9620.46
-9620.14
-9619.81
-9619.5
-9619.2
-9618.91
-9618.65
-9618.4
-9618.18
-9617.99
-9617.82
-9617.68
-9617.56
-9617.48
-9617.43
-9617.41
-9617.42
-9617.45
-9617.52
-9617.62
-9617.75
-9617.91
-9618.09
-9618.3
-9618.54
-9618.8
-9619.09
-9619.39
-9619.72
-9620.06
-9620.43
-9620.8
-9621.19
-9621.59
-9622
-9622.41
-9622.83
-9623.25
-9623.67
-9624.09
-9624.5
-9624.9
-9625.29
-9625.65
-9626
-9626.31
-9626.58
-9626.81
-9626.97
-9627.06
-9627.05
-9626.93
-9626.65
-9626.17
-9625.45
-9624.41
-9622.94
-9620.91
-9618.13
-9614.33
-9609.11
-9601.91
-9591.83
-9577.48
-9556.61
-9525.32
-9476.59
-9396.89
-9257.84
-8994.08
-8437.3
-7099.63
-7111.9
-8472.22
-9047.59
-9325.57
-9475.08
-9562.31
-9616.41
-9651.51
-9675.09
-9691.34
-9702.76
-9710.89
-9716.73
-9720.93
-9723.95
-9726.1
-9727.6
-9728.62
-9729.26
-9729.63
-9729.79
-9729.79
-9729.66
-9729.44
-9729.16
-9728.82
-9728.46
-9728.07
-9727.67
-9727.27
-9726.88
-9726.49
-9726.12
-9725.78
-9725.45
-9725.15
-9724.88
-9724.64
-9724.43
-9724.26
-9724.13
-9724.02
-9723.96
-9723.93
-9723.94
-9723.99
-9724.08
-9724.2
-9724.35
-9724.55
-9724.77
-9725.03
-9725.32
-9725.64
-9725.99
-9726.36
-9726.76
-9727.18
-9727.62
-9728.08
-9728.56
-9729.05
-9729.55
-9730.06
-9730.57
-9731.08
-9731.6
-9732.11
-9732.61
-9733.1
-9733.57
-9734.02
-9734.44
-9734.83
-9735.16
-9735.44
-9735.65
-9735.76
-9735.76
-9735.62
-9735.3
-9734.74
-9733.89
-9732.65
-9730.91
-9728.51
-9725.23
-9720.75
-9714.63
-9706.2
-9694.48
-9677.92
-9654.02
-9618.59
-9564.17
-9476.6
-9326.76
-9048.44
-8472.74
-7112.07
-7118.88
-8492.44
-9079.3
-9366.67
-9523.53
-9616.41
-9674.76
-9713.07
-9739.05
-9757.09
-9769.84
-9778.97
-9785.55
-9790.3
-9793.72
-9796.15
-9797.85
-9799
-9799.72
-9800.13
-9800.3
-9800.27
-9800.11
-9799.85
-9799.5
-9799.1
-9798.66
-9798.2
-9797.73
-9797.26
-9796.79
-9796.33
-9795.9
-9795.49
-9795.1
-9794.75
-9794.43
-9794.14
-9793.9
-9793.7
-9793.53
-9793.42
-9793.34
-9793.31
-9793.32
-9793.38
-9793.48
-9793.62
-9793.81
-9794.03
-9794.3
-9794.61
-9794.95
-9795.33
-9795.74
-9796.18
-9796.65
-9797.15
-9797.67
-9798.22
-9798.78
-9799.36
-9799.95
-9800.55
-9801.15
-9801.76
-9802.37
-9802.98
-9803.57
-9804.15
-9804.71
-9805.24
-9805.74
-9806.2
-9806.6
-9806.94
-9807.19
-9807.33
-9807.34
-9807.19
-9806.83
-9806.2
-9805.23
-9803.82
-9801.84
-9799.11
-9795.38
-9790.31
-9783.39
-9773.92
-9760.8
-9742.39
-9716.04
-9677.35
-9618.6
-9525.34
-9368.07
-9080.31
-8493.04
-7119.08
-7123.11
-8504.81
-9098.98
-9392.58
-9554.56
-9651.51
-9713.07
-9753.86
-9781.74
-9801.24
-9815.11
-9825.07
-9832.28
-9837.49
-9841.25
-9843.93
-9845.8
-9847.06
-9847.84
-9848.28
-9848.44
-9848.39
-9848.19
-9847.87
-9847.47
-9847
-9846.49
-9845.95
-9845.41
-9844.86
-9844.31
-9843.79
-9843.28
-9842.81
-9842.36
-9841.96
-9841.59
-9841.26
-9840.98
-9840.74
-9840.56
-9840.42
-9840.33
-9840.3
-9840.31
-9840.38
-9840.49
-9840.66
-9840.87
-9841.13
-9841.44
-9841.8
-9842.19
-9842.63
-9843.1
-9843.61
-9844.16
-9844.73
-9845.34
-9845.96
-9846.61
-9847.28
-9847.96
-9848.65
-9849.35
-9850.06
-9850.76
-9851.46
-9852.15
-9852.82
-9853.47
-9854.08
-9854.66
-9855.19
-9855.66
-9856.06
-9856.35
-9856.53
-9856.56
-9856.41
-9856.02
-9855.33
-9854.26
-9852.7
-9850.51
-9847.49
-9843.37
-9837.78
-9830.18
-9819.81
-9805.53
-9785.61
-9757.29
-9716.06
-9654.05
-9556.64
-9394.21
-9100.15
-8505.51
-7123.34
-7125.81
-8512.76
-9111.77
-9409.6
-9575.17
-9675.09
-9739.05
-9781.74
-9811.12
-9831.79
-9846.56
-9857.22
-9864.95
-9870.56
-9874.61
-9877.49
-9879.49
-9880.83
-9881.67
-9882.12
-9882.27
-9882.19
-9881.94
-9881.56
-9881.09
-9880.55
-9879.97
-9879.36
-9878.73
-9878.11
-9877.49
-9876.9
-9876.32
-9875.78
-9875.28
-9874.82
-9874.4
-9874.03
-9873.71
-9873.44
-9873.23
-9873.08
-9872.98
-9872.94
-9872.95
-9873.03
-9873.16
-9873.35
-9873.59
-9873.89
-9874.24
-9874.64
-9875.09
-9875.58
-9876.12
-9876.7
-9877.32
-9877.97
-9878.65
-9879.36
-9880.1
-9880.85
-9881.63
-9882.41
-9883.21
-9884.01
-9884.8
-9885.6
-9886.38
-9887.14
-9887.88
-9888.58
-9889.24
-9889.85
-9890.39
-9890.84
-9891.19
-9891.41
-9891.46
-9891.31
-9890.9
-9890.16
-9889.01
-9887.33
-9884.96
-9881.69
-9877.23
-9871.2
-9863.02
-9851.91
-9836.67
-9815.51
-9785.64
-9742.44
-9677.98
-9577.54
-9411.45
-9113.09
-8513.55
-7126.08
-7127.61
-8518.07
-9120.35
-9421.14
-9589.26
-9691.34
-9757.09
-9801.24
-9831.79
-9853.39
-9868.89
-9880.11
-9888.27
-9894.2
-9898.48
-9901.52
-9903.63
-9905.04
-9905.9
-9906.35
-9906.48
-9906.36
-9906.07
-9905.63
-9905.09
-9904.48
-9903.82
-9903.13
-9902.42
-9901.72
-9901.03
-9900.36
-9899.72
-9899.12
-9898.55
-9898.03
-9897.57
-9897.15
-9896.8
-9896.5
-9896.26
-9896.09
-9895.98
-9895.94
-9895.95
-9896.04
-9896.19
-9896.4
-9896.67
-9897
-9897.39
-9897.84
-9898.34
-9898.9
-9899.5
-9900.15
-9900.84
-9901.56
-9902.33
-9903.12
-9903.95
-9904.79
-9905.66
-9906.53
-9907.42
-9908.32
-9909.21
-9910.1
-9910.97
-9911.82
-9912.65
-9913.44
-9914.18
-9914.87
-9915.48
-9915.99
-9916.4
-9916.66
-9916.74
-9916.6
-9916.18
-9915.41
-9914.19
-9912.4
-9909.88
-9906.4
-9901.66
-9895.26
-9886.6
-9874.87
-9858.85
-9836.71
-9805.6
-9760.89
-9694.57
-9591.91
-9423.2
-9121.83
-8518.96
-7127.91
-7128.84
-8521.71
-9126.27
-9429.13
-9599.09
-9702.76
-9769.84
-9815.11
-9846.56
-9868.89
-9884.96
-9896.63
-9905.13
-9911.31
-9915.78
-9918.95
-9921.14
-9922.59
-9923.47
-9923.9
-9924
-9923.84
-9923.49
-9922.98
-9922.37
-9921.68
-9920.94
-9920.18
-9919.4
-9918.62
-9917.85
-9917.11
-9916.4
-9915.73
-9915.11
-9914.53
-9914.02
-9913.56
-9913.17
-9912.84
-9912.58
-9912.39
-9912.27
-9912.22
-9912.24
-9912.33
-9912.49
-9912.73
-9913.03
-9913.4
-9913.83
-9914.32
-9914.88
-9915.49
-9916.16
-9916.87
-9917.64
-9918.44
-9919.28
-9920.16
-9921.07
-9922.01
-9922.96
-9923.94
-9924.92
-9925.91
-9926.89
-9927.88
-9928.84
-9929.79
-9930.71
-9931.58
-9932.41
-9933.17
-9933.86
-9934.44
-9934.9
-9935.21
-9935.32
-9935.2
-9934.78
-9933.99
-9932.72
-9930.85
-9928.2
-9924.55
-9919.58
-9912.87
-9903.82
-9891.58
-9874.93
-9852
-9819.93
-9774.05
-9706.33
-9602.03
-9431.42
-9127.91
-8522.69
-7129.17
-7129.7
-8524.25
-9130.42
-9434.76
-9606.06
-9710.89
-9778.97
-9825.07
-9857.22
-9880.11
-9896.63
-9908.65
-9917.42
-9923.8
-9928.4
-9931.67
-9933.92
-9935.39
-9936.26
-9936.67
-9936.73
-9936.52
-9936.1
-9935.53
-9934.84
-9934.08
-9933.26
-9932.41
-9931.55
-9930.69
-9929.85
-9929.04
-9928.26
-9927.52
-9926.84
-9926.21
-9925.65
-9925.15
-9924.72
-9924.36
-9924.07
-9923.86
-9923.73
-9923.68
-9923.7
-9923.8
-9923.98
-9924.24
-9924.57
-9924.97
-9925.45
-9925.99
-9926.6
-9927.27
-9928
-9928.78
-9929.62
-9930.5
-9931.42
-9932.39
-9933.38
-9934.41
-9935.45
-9936.52
-9937.6
-9938.68
-9939.76
-9940.84
-9941.9
-9942.94
-9943.95
-9944.91
-9945.82
-9946.67
-9947.42
-9948.08
-9948.6
-9948.95
-9949.11
-9949.01
-9948.6
-9947.8
-9946.5
-9944.56
-9941.82
-9938.03
-9932.87
-9925.9
-9916.53
-9903.89
-9886.73
-9863.19
-9830.37
-9783.58
-9714.81
-9609.28
-9437.27
-9132.22
-8525.33
-7130.06
-7130.3
-8526.06
-9133.37
-9438.78
-9611.04
-9716.73
-9785.55
-9832.28
-9864.95
-9888.27
-9905.13
-9917.42
-9926.39
-9932.92
-9937.63
-9940.96
-9943.24
-9944.71
-9945.57
-9945.94
-9945.95
-9945.68
-9945.2
-9944.55
-9943.79
-9942.94
-9942.04
-9941.11
-9940.17
-9939.23
-9938.32
-9937.43
-9936.58
-9935.78
-9935.04
-9934.36
-9933.74
-9933.2
-9932.73
-9932.34
-9932.03
-9931.81
-9931.67
-9931.61
-9931.64
-9931.75
-9931.94
-9932.22
-9932.58
-9933.02
-9933.54
-9934.13
-9934.79
-9935.51
-9936.31
-9937.16
-9938.07
-9939.03
-9940.03
-9941.08
-9942.16
-9943.27
-9944.41
-9945.57
-9946.74
-9947.92
-9949.1
-9950.27
-9951.42
-9952.56
-9953.65
-9954.71
-9955.71
-9956.63
-9957.46
-9958.19
-9958.77
-9959.18
-9959.38
-9959.32
-9958.93
-9958.12
-9956.8
-9954.82
-9952
-9948.1
-9942.79
-9935.63
-9926
-9913.04
-9895.48
-9871.45
-9838.04
-9790.57
-9720.99
-9614.54
-9441.51
-9135.33
-8527.23
-7130.7
-7130.74
-8527.34
-9135.48
-9441.65
-9614.61
-9720.93
-9790.3
-9837.49
-9870.56
-9894.2
-9911.31
-9923.8
-9932.92
-9939.56
-9944.33
-9947.7
-9949.99
-9951.45
-9952.27
-9952.61
-9952.56
-9952.23
-9951.67
-9950.94
-9950.1
-9949.17
-9948.19
-9947.18
-9946.16
-9945.14
-9944.15
-9943.19
-9942.27
-9941.41
-9940.6
-9939.87
-9939.2
-9938.62
-9938.11
-9937.69
-9937.36
-9937.12
-9936.96
-9936.9
-9936.93
-9937.05
-9937.27
-9937.57
-9937.96
-9938.43
-9938.99
-9939.62
-9940.34
-9941.13
-9941.98
-9942.9
-9943.88
-9944.92
-9946
-9947.13
-9948.3
-9949.5
-9950.73
-9951.98
-9953.25
-9954.52
-9955.79
-9957.06
-9958.31
-9959.53
-9960.72
-9961.87
-9962.95
-9963.96
-9964.87
-9965.67
-9966.32
-9966.79
-9967.04
-9967.01
-9966.64
-9965.85
-9964.52
-9962.51
-9959.64
-9955.66
-9950.23
-9942.91
-9933.08
-9919.87
-9902
-9877.59
-9843.73
-9795.73
-9725.54
-9618.41
-9444.61
-9137.59
-8528.62
-7131.16
-7131.04
-8528.26
-9136.98
-9443.71
-9617.18
-9723.95
-9793.72
-9841.25
-9874.61
-9898.48
-9915.78
-9928.4
-9937.63
-9944.33
-9949.14
-9952.52
-9954.8
-9956.24
-9957.02
-9957.3
-9957.19
-9956.79
-9956.15
-9955.35
-9954.42
-9953.41
-9952.35
-9951.25
-9950.14
-9949.05
-9947.98
-9946.95
-9945.96
-9945.03
-9944.17
-9943.38
-9942.67
-9942.04
-9941.5
-9941.05
-9940.69
-9940.43
-9940.27
-9940.2
-9940.24
-9940.37
-9940.6
-9940.92
-9941.34
-9941.85
-9942.45
-9943.13
-9943.9
-9944.74
-9945.66
-9946.65
-9947.7
-9948.81
-9949.98
-9951.19
-9952.44
-9953.73
-9955.05
-9956.4
-9957.75
-9959.12
-9960.49
-9961.85
-9963.19
-9964.51
-9965.8
-9967.03
-9968.2
-9969.29
-9970.28
-9971.15
-9971.87
-9972.4
-9972.71
-9972.73
-9972.39
-9971.62
-9970.3
-9968.27
-9965.37
-9961.32
-9955.81
-9948.37
-9938.39
-9924.98
-9906.86
-9882.16
-9847.96
-9799.56
-9728.91
-9621.26
-9446.89
-9139.26
-8529.63
-7131.5
-7131.26
-8528.91
-9138.05
-9445.17
-9619
-9726.1
-9796.15
-9843.93
-9877.49
-9901.52
-9918.95
-9931.67
-9940.96
-9947.7
-9952.52
-9955.89
-9958.15
-9959.54
-9960.28
-9960.5
-9960.32
-9959.83
-9959.12
-9958.24
-9957.22
-9956.13
-9954.98
-9953.79
-9952.61
-9951.43
-9950.29
-9949.18
-9948.13
-9947.13
-9946.21
-9945.37
-9944.61
-9943.94
-9943.36
-9942.88
-9942.5
-9942.23
-9942.05
-9941.99
-9942.02
-9942.16
-9942.41
-9942.75
-9943.2
-9943.75
-9944.39
-9945.12
-9945.93
-9946.84
-9947.82
-9948.87
-9950
-9951.18
-9952.43
-9953.72
-9955.06
-9956.44
-9957.85
-9959.28
-9960.73
-9962.2
-9963.66
-9965.11
-9966.55
-9967.97
-9969.34
-9970.66
-9971.92
-9973.1
-9974.17
-9975.12
-9975.91
-9976.5
-9976.86
-9976.93
-9976.64
-9975.89
-9974.58
-9972.56
-9969.63
-9965.55
-9959.98
-9952.45
-9942.35
-9928.79
-9910.5
-9885.57
-9851.11
-9802.4
-9731.41
-9623.37
-9448.58
-9140.49
-8530.38
-7131.75
-7131.42
-8529.37
-9138.8
-9446.2
-9620.28
-9727.6
-9797.85
-9845.8
-9879.49
-9903.63
-9921.14
-9933.92
-9943.24
-9949.99
-9954.8
-9958.15
-9960.36
-9961.71
-9962.38
-9962.53
-9962.28
-9961.72
-9960.92
-9959.95
-9958.85
-9957.67
-9956.43
-9955.17
-9953.9
-9952.64
-9951.42
-9950.24
-9949.12
-9948.06
-9947.08
-9946.19
-9945.38
-9944.67
-9944.06
-9943.55
-9943.14
-9942.85
-9942.67
-9942.6
-9942.64
-9942.79
-9943.05
-9943.42
-9943.89
-9944.47
-9945.15
-9945.93
-9946.8
-9947.76
-9948.8
-9949.93
-9951.12
-9952.38
-9953.7
-9955.08
-9956.5
-9957.97
-9959.47
-9960.99
-9962.54
-9964.09
-9965.65
-9967.2
-9968.73
-9970.24
-9971.7
-9973.12
-9974.46
-9975.72
-9976.88
-9977.9
-9978.76
-9979.43
-9979.85
-9979.97
-9979.72
-9979.01
-9977.73
-9975.71
-9972.78
-9968.68
-9963.07
-9955.48
-9945.3
-9931.63
-9913.2
-9888.11
-9853.45
-9804.51
-9733.26
-9624.93
-9449.82
-9141.4
-8530.93
-7131.94
-7131.52
-8529.68
-9139.31
-9446.89
-9621.14
-9728.62
-9799
-9847.06
-9880.83
-9905.04
-9922.59
-9935.39
-9944.71
-9951.45
-9956.24
-9959.54
-9961.71
-9963
-9963.6
-9963.68
-9963.34
-9962.7
-9961.82
-9960.76
-9959.57
-9958.3
-9956.98
-9955.63
-9954.28
-9952.94
-9951.64
-9950.39
-9949.2
-9948.09
-9947.05
-9946.1
-9945.24
-9944.49
-9943.84
-9943.31
-9942.88
-9942.57
-9942.38
-9942.31
-9942.35
-9942.51
-9942.79
-9943.18
-9943.68
-9944.3
-9945.02
-9945.84
-9946.77
-9947.78
-9948.89
-9950.07
-9951.34
-9952.67
-9954.07
-9955.53
-9957.04
-9958.59
-9960.18
-9961.79
-9963.43
-9965.08
-9966.73
-9968.37
-9969.99
-9971.59
-9973.15
-9974.65
-9976.09
-9977.43
-9978.67
-9979.77
-9980.71
-9981.44
-9981.93
-9982.11
-9981.91
-9981.24
-9979.98
-9977.99
-9975.07
-9970.96
-9965.33
-9957.71
-9947.46
-9933.72
-9915.18
-9889.97
-9855.17
-9806.06
-9734.62
-9626.08
-9450.74
-9142.06
-8531.34
-7132.07
-7131.59
-8529.88
-9139.64
-9447.34
-9621.7
-9729.26
-9799.72
-9847.84
-9881.67
-9905.9
-9923.47
-9936.26
-9945.57
-9952.27
-9957.02
-9960.28
-9962.38
-9963.6
-9964.13
-9964.13
-9963.71
-9962.98
-9962.01
-9960.87
-9959.59
-9958.23
-9956.82
-9955.39
-9953.95
-9952.54
-9951.17
-9949.84
-9948.59
-9947.41
-9946.31
-9945.31
-9944.41
-9943.62
-9942.94
-9942.37
-9941.93
-9941.6
-9941.4
-9941.32
-9941.37
-9941.54
-9941.83
-9942.25
-9942.78
-9943.43
-9944.19
-9945.06
-9946.03
-9947.1
-9948.27
-9949.52
-9950.86
-9952.26
-9953.74
-9955.28
-9956.87
-9958.51
-9960.18
-9961.89
-9963.61
-9965.35
-9967.09
-9968.83
-9970.55
-9972.24
-9973.89
-9975.48
-9977
-9978.43
-9979.75
-9980.93
-9981.95
-9982.75
-9983.3
-9983.54
-9983.4
-9982.77
-9981.55
-9979.59
-9976.69
-9972.59
-9966.94
-9959.3
-9949.03
-9935.23
-9916.63
-9891.33
-9856.42
-9807.2
-9735.62
-9626.92
-9451.41
-9142.55
-8531.63
-7132.17
-7131.63
-8530
-9139.83
-9447.6
-9622.02
-9729.63
-9800.13
-9848.28
-9882.12
-9906.35
-9923.9
-9936.67
-9945.94
-9952.61
-9957.3
-9960.5
-9962.53
-9963.68
-9964.13
-9964.04
-9963.54
-9962.72
-9961.66
-9960.43
-9959.07
-9957.62
-9956.12
-9954.6
-9953.09
-9951.6
-9950.15
-9948.75
-9947.43
-9946.19
-9945.04
-9943.99
-9943.04
-9942.21
-9941.49
-9940.9
-9940.43
-9940.09
-9939.88
-9939.8
-9939.85
-9940.03
-9940.34
-9940.78
-9941.34
-9942.03
-9942.83
-9943.74
-9944.76
-9945.89
-9947.12
-9948.43
-9949.84
-9951.32
-9952.87
-9954.48
-9956.16
-9957.88
-9959.64
-9961.43
-9963.25
-9965.08
-9966.91
-9968.74
-9970.55
-9972.33
-9974.07
-9975.75
-9977.36
-9978.87
-9980.28
-9981.54
-9982.63
-9983.5
-9984.12
-9984.42
-9984.34
-9983.76
-9982.59
-9980.66
-9977.78
-9973.7
-9968.06
-9960.42
-9950.12
-9936.29
-9917.65
-9892.3
-9857.32
-9808.01
-9736.33
-9627.52
-9451.89
-9142.9
-8531.84
-7132.24
-7131.65
-8530.05
-9139.92
-9447.72
-9622.16
-9729.79
-9800.3
-9848.44
-9882.27
-9906.48
-9924
-9936.73
-9945.95
-9952.56
-9957.19
-9960.32
-9962.28
-9963.34
-9963.71
-9963.54
-9962.95
-9962.04
-9960.9
-9959.57
-9958.12
-9956.58
-9955
-9953.4
-9951.8
-9950.24
-9948.71
-9947.25
-9945.86
-9944.56
-9943.35
-9942.25
-9941.26
-9940.39
-9939.64
-9939.02
-9938.54
-9938.18
-9937.96
-9937.88
-9937.93
-9938.13
-9938.45
-9938.91
-9939.5
-9940.22
-9941.06
-9942.02
-9943.09
-9944.27
-9945.55
-9946.93
-9948.4
-9949.95
-9951.58
-9953.28
-9955.03
-9956.83
-9958.68
-9960.56
-9962.46
-9964.38
-9966.3
-9968.22
-9970.12
-9971.99
-9973.82
-9975.59
-9977.28
-9978.88
-9980.37
-9981.71
-9982.87
-9983.82
-9984.51
-9984.88
-9984.85
-9984.33
-9983.2
-9981.32
-9978.47
-9974.41
-9968.79
-9961.16
-9950.86
-9937.02
-9918.35
-9892.96
-9857.94
-9808.57
-9736.82
-9627.94
-9452.22
-9143.14
-8531.99
-7132.29
-7131.65
-8530.06
-9139.93
-9447.73
-9622.17
-9729.79
-9800.27
-9848.39
-9882.19
-9906.36
-9923.84
-9936.52
-9945.68
-9952.23
-9956.79
-9959.83
-9961.72
-9962.7
-9962.98
-9962.72
-9962.04
-9961.05
-9959.81
-9958.39
-9956.85
-9955.23
-9953.56
-9951.88
-9950.2
-9948.56
-9946.97
-9945.43
-9943.98
-9942.62
-9941.36
-9940.21
-9939.18
-9938.27
-9937.49
-9936.84
-9936.33
-9935.97
-9935.74
-9935.65
-9935.71
-9935.91
-9936.26
-9936.74
-9937.35
-9938.1
-9938.98
-9939.99
-9941.11
-9942.34
-9943.68
-9945.12
-9946.66
-9948.28
-9949.98
-9951.75
-9953.58
-9955.47
-9957.4
-9959.36
-9961.35
-9963.36
-9965.37
-9967.37
-9969.36
-9971.32
-9973.23
-9975.09
-9976.87
-9978.56
-9980.12
-9981.54
-9982.79
-9983.81
-9984.57
-9985
-9985.03
-9984.57
-9983.49
-9981.65
-9978.85
-9974.82
-9969.22
-9961.6
-9951.31
-9937.47
-9918.8
-9893.39
-9858.34
-9808.94
-9737.15
-9628.22
-9452.45
-9143.31
-8532.09
-7132.33
-7131.64
-8530.04
-9139.88
-9447.66
-9622.07
-9729.66
-9800.11
-9848.19
-9881.94
-9906.07
-9923.49
-9936.1
-9945.2
-9951.67
-9956.15
-9959.12
-9960.92
-9961.82
-9962.01
-9961.66
-9960.9
-9959.81
-9958.48
-9956.98
-9955.35
-9953.64
-9951.89
-9950.12
-9948.37
-9946.65
-9944.99
-9943.39
-9941.87
-9940.46
-9939.14
-9937.94
-9936.87
-9935.92
-9935.11
-9934.44
-9933.91
-9933.53
-9933.3
-9933.21
-9933.27
-9933.48
-9933.84
-9934.35
-9934.99
-9935.77
-9936.69
-9937.73
-9938.9
-9940.19
-9941.59
-9943.09
-9944.69
-9946.38
-9948.15
-9949.99
-9951.9
-9953.87
-9955.88
-9957.92
-9960
-9962.09
-9964.19
-9966.28
-9968.35
-9970.4
-9972.4
-9974.34
-9976.21
-9977.97
-9979.62
-9981.12
-9982.44
-9983.53
-9984.36
-9984.86
-9984.95
-9984.55
-9983.53
-9981.73
-9978.97
-9974.98
-9969.42
-9961.82
-9951.55
-9937.72
-9919.05
-9893.64
-9858.58
-9809.16
-9737.35
-9628.39
-9452.59
-9143.41
-8532.16
-7132.35
-7131.62
-8529.98
-9139.79
-9447.53
-9621.9
-9729.44
-9799.85
-9847.87
-9881.56
-9905.63
-9922.98
-9935.53
-9944.55
-9950.94
-9955.35
-9958.24
-9959.95
-9960.76
-9960.87
-9960.43
-9959.57
-9958.39
-9956.98
-9955.39
-9953.67
-9951.88
-9950.04
-9948.2
-9946.37
-9944.58
-9942.84
-9941.18
-9939.61
-9938.13
-9936.77
-9935.52
-9934.41
-9933.42
-9932.58
-9931.89
-9931.34
-9930.95
-9930.7
-9930.62
-9930.68
-9930.91
-9931.28
-9931.8
-9932.47
-9933.29
-9934.24
-9935.33
-9936.54
-9937.88
-9939.33
-9940.89
-9942.56
-9944.31
-9946.15
-9948.07
-9950.05
-9952.09
-9954.18
-9956.31
-9958.47
-9960.64
-9962.82
-9965
-9967.16
-9969.29
-9971.37
-9973.4
-9975.35
-9977.2
-9978.92
-9980.5
-9981.89
-9983.06
-9983.96
-9984.52
-9984.68
-9984.34
-9983.37
-9981.63
-9978.91
-9974.96
-9969.44
-9961.87
-9951.62
-9937.81
-9919.16
-9893.76
-9858.7
-9809.27
-9737.46
-9628.48
-9452.66
-9143.47
-8532.19
-7132.36
-7131.6
-8529.91
-9139.67
-9447.35
-9621.67
-9729.16
-9799.5
-9847.47
-9881.09
-9905.09
-9922.37
-9934.84
-9943.79
-9950.1
-9954.42
-9957.22
-9958.85
-9959.57
-9959.59
-9959.07
-9958.12
-9956.85
-9955.35
-9953.67
-9951.87
-9950
-9948.08
-9946.16
-9944.26
-9942.39
-9940.59
-9938.86
-9937.23
-9935.7
-9934.29
-9933
-9931.84
-9930.83
-9929.96
-9929.24
-9928.67
-9928.27
-9928.02
-9927.93
-9928
-9928.23
-9928.62
-9929.17
-9929.86
-9930.71
-9931.7
-9932.82
-9934.08
-9935.47
-9936.98
-9938.6
-9940.32
-9942.14
-9944.05
-9946.03
-9948.09
-9950.2
-9952.37
-9954.58
-9956.81
-9959.07
-9961.33
-9963.59
-9965.83
-9968.04
-9970.21
-9972.32
-9974.35
-9976.27
-9978.08
-9979.73
-9981.2
-9982.44
-9983.41
-9984.04
-9984.26
-9983.97
-9983.06
-9981.37
-9978.7
-9974.8
-9969.31
-9961.78
-9951.57
-9937.78
-9919.15
-9893.76
-9858.71
-9809.3
-9737.49
-9628.51
-9452.69
-9143.49
-8532.2
-7132.37
-7131.57
-8529.82
-9139.52
-9447.14
-9621.4
-9728.82
-9799.1
-9847
-9880.55
-9904.48
-9921.68
-9934.08
-9942.94
-9949.17
-9953.41
-9956.13
-9957.67
-9958.3
-9958.23
-9957.62
-9956.58
-9955.23
-9953.64
-9951.88
-9950
-9948.04
-9946.05
-9944.05
-9942.07
-9940.14
-9938.27
-9936.49
-9934.8
-9933.21
-9931.75
-9930.42
-9929.23
-9928.18
-9927.28
-9926.54
-9925.96
-9925.54
-9925.28
-9925.2
-9925.27
-9925.51
-9925.92
-9926.48
-9927.2
-9928.08
-9929.1
-9930.27
-9931.57
-9933.01
-9934.56
-9936.24
-9938.02
-9939.9
-9941.88
-9943.93
-9946.06
-9948.24
-9950.48
-9952.77
-9955.08
-9957.41
-9959.76
-9962.09
-9964.42
-9966.71
-9968.96
-9971.14
-9973.25
-9975.25
-9977.13
-9978.86
-9980.4
-9981.71
-9982.74
-9983.44
-9983.72
-9983.5
-9982.64
-9981.01
-9978.39
-9974.53
-9969.09
-9961.59
-9951.41
-9937.66
-9919.05
-9893.69
-9858.66
-9809.26
-9737.46
-9628.49
-9452.68
-9143.48
-8532.2
-7132.36
-7131.54
-8529.72
-9139.36
-9446.91
-9621.1
-9728.46
-9798.66
-9846.49
-9879.97
-9903.82
-9920.94
-9933.26
-9942.04
-9948.19
-9952.35
-9954.98
-9956.43
-9956.98
-9956.82
-9956.12
-9955
-9953.56
-9951.89
-9950.04
-9948.08
-9946.05
-9943.98
-9941.91
-9939.86
-9937.86
-9935.93
-9934.09
-9932.34
-9930.71
-9929.2
-9927.83
-9926.6
-9925.52
-9924.6
-9923.83
-9923.23
-9922.8
-9922.54
-9922.45
-9922.54
-9922.79
-9923.21
-9923.79
-9924.54
-9925.44
-9926.5
-9927.7
-9929.05
-9930.53
-9932.14
-9933.86
-9935.7
-9937.64
-9939.68
-9941.8
-9943.99
-9946.25
-9948.56
-9950.92
-9953.3
-9955.71
-9958.13
-9960.55
-9962.95
-9965.31
-9967.64
-9969.9
-9972.08
-9974.16
-9976.11
-9977.91
-9979.52
-9980.9
-9982
-9982.76
-9983.11
-9982.94
-9982.15
-9980.56
-9978
-9974.18
-9968.78
-9961.33
-9951.19
-9937.47
-9918.89
-9893.55
-9858.55
-9809.17
-9737.39
-9628.44
-9452.64
-9143.45
-8532.18
-7132.36
-7131.5
-8529.62
-9139.18
-9446.67
-9620.79
-9728.07
-9798.2
-9845.95
-9879.36
-9903.13
-9920.18
-9932.41
-9941.11
-9947.18
-9951.25
-9953.79
-9955.17
-9955.63
-9955.39
-9954.6
-9953.4
-9951.88
-9950.12
-9948.2
-9946.16
-9944.05
-9941.91
-9939.77
-9937.65
-9935.59
-9933.6
-9931.7
-9929.9
-9928.22
-9926.67
-9925.26
-9923.99
-9922.88
-9921.93
-9921.15
-9920.54
-9920.1
-9919.83
-9919.74
-9919.83
-9920.09
-9920.52
-9921.12
-9921.89
-9922.82
-9923.91
-9925.15
-9926.54
-9928.07
-9929.72
-9931.5
-9933.39
-9935.39
-9937.49
-9939.67
-9941.93
-9944.25
-9946.63
-9949.06
-9951.52
-9954
-9956.49
-9958.98
-9961.45
-9963.89
-9966.29
-9968.63
-9970.88
-9973.03
-9975.06
-9976.92
-9978.6
-9980.05
-9981.21
-9982.04
-9982.44
-9982.34
-9981.59
-9980.06
-9977.55
-9973.78
-9968.43
-9961.02
-9950.91
-9937.23
-9918.68
-9893.38
-9858.4
-9809.05
-9737.29
-9628.36
-9452.58
-9143.41
-8532.16
-7132.35
-7131.47
-8529.51
-9139
-9446.42
-9620.46
-9727.67
-9797.73
-9845.41
-9878.73
-9902.42
-9919.4
-9931.55
-9940.17
-9946.16
-9950.14
-9952.61
-9953.9
-9954.28
-9953.95
-9953.09
-9951.8
-9950.2
-9948.37
-9946.37
-9944.26
-9942.07
-9939.86
-9937.65
-9935.48
-9933.35
-9931.31
-9929.35
-9927.5
-9925.78
-9924.18
-9922.73
-9921.44
-9920.3
-9919.33
-9918.52
-9917.9
-9917.45
-9917.18
-9917.09
-9917.18
-9917.45
-9917.89
-9918.51
-9919.3
-9920.26
-9921.38
-9922.66
-9924.08
-9925.65
-9927.35
-9929.18
-9931.12
-9933.18
-9935.33
-9937.57
-9939.89
-9942.28
-9944.72
-9947.22
-9949.74
-9952.29
-9954.85
-9957.41
-9959.96
-9962.47
-9964.94
-9967.34
-9969.67
-9971.89
-9973.98
-9975.91
-9977.66
-9979.17
-9980.4
-9981.28
-9981.74
-9981.69
-9981.01
-9979.53
-9977.06
-9973.34
-9968.03
-9960.66
-9950.6
-9936.95
-9918.44
-9893.17
-9858.22
-9808.9
-9737.17
-9628.26
-9452.5
-9143.36
-8532.13
-7132.34
-7131.43
-8529.4
-9138.82
-9446.17
-9620.14
-9727.27
-9797.26
-9844.86
-9878.11
-9901.72
-9918.62
-9930.69
-9939.23
-9945.14
-9949.05
-9951.43
-9952.64
-9952.94
-9952.54
-9951.6
-9950.24
-9948.56
-9946.65
-9944.58
-9942.39
-9940.14
-9937.86
-9935.59
-9933.35
-9931.17
-9929.07
-9927.07
-9925.17
-9923.4
-9921.77
-9920.28
-9918.96
-9917.79
-9916.8
-9915.98
-9915.34
-9914.88
-9914.6
-9914.51
-9914.61
-9914.88
-9915.34
-9915.98
-9916.8
-9917.78
-9918.93
-9920.24
-9921.7
-9923.3
-9925.05
-9926.92
-9928.92
-9931.02
-9933.23
-9935.52
-9937.9
-9940.35
-9942.86
-9945.41
-9948
-9950.62
-9953.25
-9955.87
-9958.48
-9961.06
-9963.6
-9966.07
-9968.46
-9970.75
-9972.9
-9974.9
-9976.71
-9978.28
-9979.57
-9980.51
-9981.03
-9981.03
-9980.4
-9978.97
-9976.55
-9972.88
-9967.62
-9960.29
-9950.27
-9936.66
-9918.18
-9892.94
-9858.03
-9808.73
-9737.03
-9628.15
-9452.42
-9143.3
-8532.09
-7132.33
-7131.4
-8529.3
-9138.65
-9445.92
-9619.81
-9726.88
-9796.79
-9844.31
-9877.49
-9901.03
-9917.85
-9929.85
-9938.32
-9944.15
-9947.98
-9950.29
-9951.42
-9951.64
-9951.17
-9950.15
-9948.71
-9946.97
-9944.99
-9942.84
-9940.59
-9938.27
-9935.93
-9933.6
-9931.31
-9929.07
-9926.92
-9924.86
-9922.93
-9921.12
-9919.45
-9917.93
-9916.57
-9915.38
-9914.37
-9913.53
-9912.88
-9912.41
-9912.13
-9912.04
-9912.14
-9912.43
-9912.9
-9913.55
-9914.39
-9915.39
-9916.57
-9917.91
-9919.41
-9921.05
-9922.84
-9924.75
-9926.79
-9928.94
-9931.2
-9933.55
-9935.98
-9938.49
-9941.06
-9943.67
-9946.32
-9949
-9951.69
-9954.38
-9957.05
-9959.69
-9962.29
-9964.83
-9967.28
-9969.63
-9971.85
-9973.91
-9975.77
-9977.4
-9978.75
-9979.74
-9980.32
-9980.37
-9979.79
-9978.41
-9976.04
-9972.42
-9967.19
-9959.91
-9949.92
-9936.35
-9917.91
-9892.71
-9857.82
-9808.56
-9736.88
-9628.03
-9452.33
-9143.24
-8532.06
-7132.32
-7131.36
-8529.19
-9138.47
-9445.67
-9619.5
-9726.49
-9796.33
-9843.79
-9876.9
-9900.36
-9917.11
-9929.04
-9937.43
-9943.19
-9946.95
-9949.18
-9950.24
-9950.39
-9949.84
-9948.75
-9947.25
-9945.43
-9943.39
-9941.18
-9938.86
-9936.49
-9934.09
-9931.7
-9929.35
-9927.07
-9924.86
-9922.77
-9920.79
-9918.94
-9917.23
-9915.69
-9914.3
-9913.09
-9912.05
-9911.2
-9910.54
-9910.06
-9909.78
-9909.69
-9909.8
-9910.09
-9910.57
-9911.24
-9912.1
-9913.13
-9914.33
-9915.7
-9917.23
-9918.91
-9920.73
-9922.69
-9924.77
-9926.97
-9929.27
-9931.67
-9934.15
-9936.71
-9939.33
-9942
-9944.71
-9947.45
-9950.19
-9952.94
-9955.67
-9958.38
-9961.03
-9963.63
-9966.14
-9968.54
-9970.82
-9972.94
-9974.86
-9976.54
-9977.94
-9978.99
-9979.62
-9979.72
-9979.19
-9977.86
-9975.53
-9971.95
-9966.77
-9959.52
-9949.57
-9936.04
-9917.63
-9892.46
-9857.61
-9808.38
-9736.73
-9627.91
-9452.23
-9143.17
-8532.02
-7132.3
-7131.33
-8529.09
-9138.31
-9445.44
-9619.2
-9726.12
-9795.9
-9843.28
-9876.32
-9899.72
-9916.4
-9928.26
-9936.58
-9942.27
-9945.96
-9948.13
-9949.12
-9949.2
-9948.59
-9947.43
-9945.86
-9943.98
-9941.87
-9939.61
-9937.23
-9934.8
-9932.34
-9929.9
-9927.5
-9925.17
-9922.93
-9920.79
-9918.77
-9916.88
-9915.15
-9913.57
-9912.16
-9910.93
-9909.88
-9909.01
-9908.34
-9907.86
-9907.57
-9907.48
-9907.59
-9907.89
-9908.39
-9909.07
-9909.94
-9910.99
-9912.22
-9913.62
-9915.17
-9916.89
-9918.74
-9920.74
-9922.86
-9925.1
-9927.45
-9929.89
-9932.43
-9935.03
-9937.7
-9940.42
-9943.18
-9945.97
-9948.77
-9951.58
-9954.36
-9957.12
-9959.83
-9962.48
-9965.05
-9967.51
-9969.84
-9972.01
-9973.98
-9975.72
-9977.17
-9978.27
-9978.94
-9979.09
-9978.6
-9977.32
-9975.03
-9971.49
-9966.35
-9959.14
-9949.23
-9935.73
-9917.36
-9892.22
-9857.4
-9808.2
-9736.58
-9627.79
-9452.14
-9143.1
-8531.98
-7132.29
-7131.3
-8529
-9138.15
-9445.22
-9618.91
-9725.78
-9795.49
-9842.81
-9875.78
-9899.12
-9915.73