/*--------------------------------*- C++ -*----------------------------------*\
  =========                 |
  \\      /  F ield         | OpenFOAM: The Open Source CFD Toolbox
   \\    /   O peration     | Website:  https://openfoam.org
    \\  /    A nd           | Version:  9
     \\/     M anipulation  |
\*---------------------------------------------------------------------------*/
FoamFile
{
    format      ascii;
    class       volScalarField;
    location    "0.25";
    object      T;
}
// * * * * * * * * * * * * * * * * * * * * * * * * * * * * * * * * * * * * * //

dimensions      [0 0 0 1 0 0 0];

internalField   nonuniform List<scalar> 
200000
(
300.356
300.654
300.822
300.935
301.021
301.091
301.15
301.202
301.248
301.29
301.329
301.366
301.401
301.434
301.466
301.498
301.528
301.558
301.587
301.616
301.644
301.673
301.7
301.727
301.754
301.78
301.806
301.831
301.855
301.879
301.901
301.923
301.944
301.963
301.981
301.998
302.013
302.027
302.04
302.05
302.059
302.066
302.072
302.075
302.077
302.077
302.075
302.071
302.065
302.058
302.049
302.038
302.025
302.011
301.996
301.979
301.961
301.942
301.922
301.9
301.878
301.856
301.833
301.809
301.785
301.76
301.736
301.711
301.687
301.662
301.638
301.614
301.59
301.566
301.543
301.52
301.498
301.476
301.454
301.433
301.412
301.391
301.37
301.349
301.328
301.307
301.285
301.262
301.237
301.211
301.183
301.152
301.117
301.076
301.029
300.97
300.895
300.793
300.637
300.35
300.654
301.37
301.827
302.153
302.406
302.612
302.788
302.942
303.08
303.206
303.323
303.433
303.538
303.637
303.734
303.827
303.919
304.008
304.096
304.183
304.268
304.352
304.435
304.517
304.597
304.676
304.753
304.828
304.901
304.971
305.039
305.104
305.166
305.224
305.279
305.33
305.376
305.417
305.454
305.486
305.513
305.535
305.551
305.561
305.567
305.566
305.56
305.548
305.531
305.509
305.481
305.449
305.411
305.369
305.323
305.273
305.219
305.161
305.1
305.037
304.971
304.903
304.833
304.762
304.689
304.616
304.542
304.468
304.394
304.321
304.248
304.175
304.104
304.033
303.964
303.896
303.829
303.762
303.697
303.633
303.57
303.507
303.445
303.382
303.319
303.254
303.188
303.119
303.046
302.968
302.884
302.791
302.686
302.566
302.424
302.251
302.033
301.741
301.319
300.637
300.822
301.827
302.515
303.028
303.434
303.77
304.058
304.312
304.541
304.75
304.944
305.126
305.3
305.466
305.627
305.783
305.935
306.084
306.231
306.375
306.517
306.658
306.796
306.932
307.066
307.198
307.326
307.452
307.574
307.691
307.805
307.913
308.017
308.114
308.205
308.289
308.367
308.436
308.498
308.551
308.596
308.632
308.659
308.677
308.685
308.685
308.674
308.655
308.627
308.589
308.543
308.489
308.426
308.356
308.279
308.195
308.104
308.008
307.907
307.801
307.691
307.577
307.46
307.341
307.22
307.098
306.975
306.852
306.728
306.606
306.484
306.363
306.243
306.126
306.01
305.896
305.784
305.673
305.565
305.458
305.352
305.248
305.143
305.039
304.933
304.826
304.715
304.601
304.48
304.351
304.212
304.058
303.885
303.688
303.456
303.176
302.827
302.372
301.741
300.793
300.935
302.153
303.028
303.7
304.244
304.701
305.096
305.446
305.763
306.053
306.323
306.578
306.82
307.052
307.277
307.495
307.708
307.917
308.123
308.325
308.525
308.721
308.916
309.107
309.295
309.479
309.66
309.836
310.007
310.172
310.331
310.484
310.629
310.765
310.893
311.012
311.12
311.218
311.305
311.38
311.443
311.493
311.531
311.556
311.568
311.567
311.553
311.526
311.486
311.433
311.369
311.292
311.205
311.106
310.998
310.88
310.753
310.618
310.475
310.327
310.172
310.012
309.848
309.681
309.512
309.34
309.167
308.994
308.821
308.648
308.477
308.307
308.14
307.975
307.812
307.652
307.494
307.34
307.188
307.038
306.89
306.743
306.597
306.45
306.303
306.153
305.999
305.839
305.671
305.492
305.298
305.085
304.848
304.576
304.261
303.883
303.419
302.827
302.032
300.895
301.021
302.406
303.434
304.244
304.912
305.48
305.975
306.417
306.818
307.188
307.532
307.858
308.168
308.466
308.754
309.035
309.309
309.578
309.843
310.103
310.361
310.614
310.864
311.111
311.353
311.591
311.824
312.051
312.272
312.485
312.691
312.888
313.075
313.251
313.416
313.569
313.709
313.835
313.947
314.044
314.126
314.191
314.24
314.272
314.288
314.286
314.268
314.233
314.182
314.114
314.031
313.932
313.819
313.692
313.552
313.4
313.236
313.062
312.878
312.686
312.486
312.28
312.069
311.853
311.634
311.413
311.19
310.966
310.743
310.52
310.299
310.08
309.864
309.651
309.441
309.234
309.032
308.832
308.636
308.443
308.252
308.063
307.875
307.687
307.498
307.305
307.108
306.903
306.688
306.46
306.214
305.945
305.645
305.305
304.912
304.447
303.882
303.175
302.25
300.97
301.091
302.612
303.77
304.701
305.48
306.15
306.739
307.268
307.751
308.197
308.615
309.01
309.388
309.751
310.103
310.446
310.781
311.11
311.434
311.754
312.069
312.38
312.686
312.989
313.286
313.578
313.864
314.143
314.413
314.676
314.928
315.17
315.399
315.616
315.819
316.007
316.179
316.334
316.471
316.59
316.69
316.771
316.831
316.871
316.89
316.888
316.866
316.823
316.76
316.677
316.575
316.454
316.315
316.159
315.987
315.8
315.599
315.385
315.16
314.924
314.679
314.426
314.166
313.901
313.632
313.36
313.087
312.812
312.538
312.264
311.993
311.724
311.459
311.197
310.94
310.686
310.438
310.193
309.953
309.716
309.482
309.251
309.021
308.791
308.56
308.325
308.085
307.836
307.576
307.3
307.003
306.68
306.321
305.917
305.453
304.909
304.257
303.452
302.421
301.028
301.15
302.788
304.058
305.096
305.975
306.739
307.417
308.029
308.59
309.111
309.6
310.065
310.509
310.937
311.352
311.757
312.153
312.543
312.926
313.305
313.678
314.047
314.411
314.77
315.123
315.47
315.809
316.14
316.462
316.773
317.073
317.36
317.633
317.891
318.132
318.355
318.56
318.744
318.908
319.049
319.168
319.264
319.335
319.383
319.406
319.404
319.378
319.327
319.252
319.154
319.032
318.889
318.724
318.539
318.334
318.112
317.873
317.619
317.351
317.071
316.78
316.479
316.171
315.856
315.536
315.213
314.888
314.561
314.235
313.911
313.588
313.269
312.954
312.643
312.337
312.037
311.741
311.451
311.166
310.885
310.609
310.335
310.063
309.791
309.518
309.241
308.958
308.666
308.361
308.039
307.694
307.318
306.904
306.441
305.912
305.298
304.569
303.681
302.562
301.075
301.202
302.942
304.312
305.446
306.417
307.268
308.029
308.72
309.357
309.95
310.509
311.041
311.551
312.043
312.522
312.989
313.447
313.897
314.341
314.779
315.211
315.639
316.06
316.476
316.886
317.288
317.681
318.066
318.439
318.801
319.149
319.482
319.799
320.098
320.378
320.638
320.875
321.089
321.279
321.444
321.582
321.693
321.777
321.832
321.859
321.857
321.827
321.768
321.681
321.567
321.426
321.26
321.068
320.854
320.616
320.359
320.081
319.786
319.475
319.15
318.812
318.463
318.105
317.739
317.368
316.993
316.615
316.236
315.858
315.481
315.107
314.736
314.37
314.01
313.655
313.306
312.964
312.627
312.297
311.972
311.652
311.335
311.021
310.707
310.392
310.074
309.749
309.415
309.066
308.699
308.306
307.882
307.416
306.897
306.309
305.631
304.835
303.875
302.68
301.114
301.248
303.08
304.541
305.763
306.818
307.751
308.59
309.357
310.066
310.73
311.357
311.956
312.531
313.087
313.629
314.158
314.677
315.189
315.693
316.191
316.683
317.17
317.65
318.124
318.591
319.049
319.498
319.936
320.362
320.775
321.172
321.552
321.914
322.256
322.575
322.871
323.143
323.387
323.605
323.793
323.951
324.078
324.173
324.237
324.267
324.266
324.231
324.164
324.065
323.935
323.775
323.585
323.367
323.122
322.851
322.557
322.241
321.904
321.549
321.178
320.792
320.394
319.985
319.568
319.145
318.716
318.285
317.853
317.421
316.991
316.564
316.142
315.724
315.313
314.909
314.511
314.121
313.738
313.361
312.991
312.627
312.267
311.911
311.555
311.199
310.839
310.473
310.096
309.705
309.294
308.857
308.385
307.87
307.3
306.657
305.922
305.065
304.042
302.781
301.148
301.29
303.206
304.75
306.053
307.188
308.197
309.111
309.95
310.73
311.462
312.157
312.821
313.46
314.08
314.685
315.277
315.858
316.431
316.996
317.555
318.108
318.654
319.194
319.727
320.251
320.767
321.272
321.765
322.245
322.709
323.156
323.585
323.992
324.377
324.737
325.071
325.376
325.652
325.897
326.109
326.287
326.431
326.539
326.61
326.645
326.643
326.605
326.53
326.419
326.273
326.092
325.878
325.633
325.357
325.053
324.721
324.365
323.986
323.587
323.169
322.734
322.286
321.826
321.356
320.879
320.397
319.912
319.425
318.939
318.455
317.974
317.498
317.029
316.566
316.111
315.664
315.225
314.794
314.371
313.956
313.547
313.144
312.745
312.347
311.949
311.548
311.141
310.723
310.29
309.837
309.356
308.84
308.279
307.66
306.968
306.18
305.269
304.189
302.87
301.178
301.329
303.323
304.944
306.323
307.532
308.615
309.6
310.509
311.357
312.157
312.917
313.646
314.35
315.033
315.701
316.355
316.998
317.633
318.26
318.881
319.494
320.102
320.702
321.294
321.878
322.452
323.014
323.563
324.097
324.614
325.113
325.59
326.044
326.473
326.874
327.246
327.587
327.895
328.168
328.405
328.604
328.764
328.884
328.964
329.004
329.002
328.959
328.876
328.753
328.59
328.389
328.152
327.878
327.571
327.232
326.863
326.467
326.045
325.599
325.134
324.65
324.15
323.638
323.114
322.583
322.046
321.505
320.963
320.421
319.882
319.347
318.817
318.294
317.778
317.272
316.774
316.286
315.807
315.337
314.876
314.422
313.975
313.533
313.093
312.653
312.211
311.763
311.304
310.831
310.336
309.814
309.255
308.65
307.986
307.247
306.412
305.451
304.32
302.949
301.205
301.366
303.433
305.126
306.578
307.858
309.01
310.065
311.041
311.956
312.821
313.646
314.439
315.207
315.953
316.684
317.401
318.107
318.804
319.494
320.176
320.852
321.521
322.182
322.835
323.479
324.112
324.733
325.339
325.928
326.5
327.05
327.577
328.079
328.553
328.996
329.408
329.785
330.125
330.427
330.688
330.909
331.086
331.22
331.309
331.352
331.351
331.304
331.213
331.077
330.898
330.676
330.414
330.112
329.773
329.399
328.992
328.554
328.088
327.596
327.082
326.547
325.995
325.429
324.851
324.264
323.671
323.074
322.475
321.877
321.281
320.69
320.105
319.528
318.959
318.4
317.851
317.312
316.784
316.267
315.759
315.26
314.768
314.283
313.8
313.319
312.836
312.348
311.849
311.335
310.8
310.237
309.638
308.991
308.285
307.502
306.623
305.616
304.439
303.021
301.229
301.401
303.538
305.3
306.82
308.168
309.388
310.509
311.551
312.531
313.46
314.35
315.207
316.038
316.848
317.641
318.421
319.19
319.951
320.703
321.448
322.187
322.918
323.642
324.357
325.062
325.755
326.435
327.099
327.745
328.372
328.975
329.553
330.104
330.623
331.11
331.562
331.975
332.349
332.68
332.968
333.21
333.405
333.552
333.65
333.699
333.698
333.647
333.547
333.398
333.202
332.96
332.672
332.342
331.97
331.56
331.114
330.634
330.123
329.584
329.02
328.434
327.829
327.208
326.574
325.931
325.28
324.625
323.968
323.312
322.659
322.011
321.37
320.737
320.114
319.501
318.9
318.311
317.733
317.167
316.612
316.067
315.531
315.001
314.476
313.954
313.43
312.901
312.362
311.809
311.235
310.633
309.994
309.307
308.561
307.737
306.816
305.767
304.548
303.086
301.25
301.434
303.637
305.466
307.052
308.466
309.751
310.937
312.043
313.087
314.08
315.033
315.953
316.848
317.721
318.578
319.421
320.254
321.078
321.894
322.703
323.505
324.3
325.087
325.864
326.631
327.386
328.126
328.85
329.554
330.236
330.894
331.524
332.124
332.691
333.222
333.714
334.165
334.573
334.935
335.249
335.513
335.726
335.887
335.994
336.048
336.047
335.993
335.884
335.723
335.509
335.246
334.933
334.573
334.169
333.722
333.235
332.712
332.156
331.568
330.954
330.315
329.656
328.98
328.289
327.587
326.878
326.165
325.449
324.734
324.023
323.317
322.618
321.929
321.25
320.583
319.928
319.287
318.659
318.043
317.44
316.849
316.267
315.694
315.126
314.562
313.997
313.428
312.85
312.258
311.646
311.005
310.328
309.603
308.818
307.956
306.996
305.907
304.648
303.146
301.271
301.466
303.734
305.627
307.277
308.754
310.103
311.352
312.522
313.629
314.685
315.701
316.684
317.641
318.578
319.498
320.405
321.302
322.19
323.07
323.944
324.81
325.67
326.521
327.362
328.192
329.009
329.811
330.595
331.358
332.097
332.81
333.493
334.144
334.759
335.335
335.869
336.359
336.801
337.194
337.535
337.822
338.054
338.229
338.346
338.405
338.405
338.346
338.229
338.055
337.824
337.538
337.2
336.81
336.372
335.888
335.361
334.794
334.191
333.554
332.888
332.196
331.482
330.748
330
329.239
328.471
327.697
326.921
326.146
325.375
324.61
323.853
323.106
322.371
321.648
320.94
320.245
319.566
318.9
318.249
317.61
316.983
316.365
315.754
315.148
314.542
313.933
313.316
312.686
312.036
311.358
310.644
309.882
309.06
308.161
307.164
306.038
304.742
303.203
301.289
301.498
303.827
305.783
307.495
309.035
310.446
311.757
312.989
314.158
315.277
316.355
317.401
318.421
319.421
320.405
321.376
322.338
323.29
324.236
325.174
326.106
327.031
327.947
328.853
329.747
330.628
331.492
332.337
333.16
333.958
334.727
335.464
336.166
336.83
337.452
338.029
338.558
339.036
339.461
339.829
340.14
340.391
340.58
340.707
340.771
340.772
340.71
340.584
340.397
340.148
339.841
339.476
339.056
338.583
338.062
337.493
336.882
336.231
335.545
334.826
334.08
333.309
332.517
331.71
330.889
330.06
329.225
328.388
327.552
326.72
325.895
325.078
324.273
323.48
322.701
321.938
321.19
320.458
319.742
319.041
318.355
317.681
317.019
316.365
315.716
315.069
314.421
313.765
313.097
312.409
311.695
310.944
310.147
309.289
308.355
307.322
306.162
304.83
303.256
301.307
301.528
303.919
305.935
307.708
309.309
310.781
312.153
313.447
314.677
315.858
316.998
318.107
319.19
320.254
321.302
322.338
323.364
324.382
325.393
326.397
327.395
328.386
329.368
330.339
331.299
332.244
333.172
334.079
334.963
335.82
336.646
337.439
338.193
338.907
339.576
340.196
340.765
341.28
341.736
342.133
342.468
342.738
342.943
343.08
343.15
343.152
343.085
342.951
342.75
342.484
342.154
341.763
341.312
340.805
340.245
339.635
338.978
338.279
337.542
336.77
335.968
335.139
334.289
333.421
332.54
331.649
330.752
329.853
328.954
328.061
327.174
326.297
325.432
324.581
323.745
322.925
322.123
321.338
320.571
319.82
319.086
318.365
317.658
316.96
316.269
315.582
314.893
314.199
313.493
312.769
312.018
311.232
310.4
309.508
308.54
307.473
306.279
304.914
303.306
301.324
301.558
304.008
306.084
307.917
309.578
311.11
312.543
313.897
315.189
316.431
317.633
318.804
319.951
321.078
322.19
323.29
324.382
325.465
326.543
327.614
328.678
329.736
330.785
331.823
332.848
333.859
334.851
335.821
336.767
337.684
338.569
339.417
340.226
340.99
341.706
342.371
342.981
343.532
344.022
344.448
344.807
345.097
345.317
345.465
345.54
345.543
345.473
345.33
345.116
344.832
344.479
344.061
343.579
343.037
342.438
341.785
341.083
340.335
339.546
338.72
337.861
336.975
336.065
335.136
334.192
333.238
332.278
331.316
330.355
329.398
328.449
327.511
326.585
325.675
324.781
323.905
323.047
322.209
321.389
320.588
319.805
319.038
318.284
317.543
316.809
316.081
315.353
314.62
313.877
313.116
312.33
311.51
310.644
309.718
308.717
307.618
306.391
304.994
303.354
301.34
301.587
304.096
306.231
308.123
309.843
311.434
312.926
314.341
315.693
316.996
318.26
319.494
320.703
321.894
323.07
324.236
325.393
326.543
327.687
328.825
329.957
331.082
332.198
333.304
334.396
335.472
336.53
337.564
338.573
339.551
340.495
341.4
342.262
343.078
343.843
344.553
345.204
345.793
346.316
346.771
347.155
347.466
347.701
347.86
347.942
347.946
347.872
347.72
347.493
347.19
346.815
346.37
345.856
345.279
344.64
343.944
343.196
342.398
341.557
340.676
339.76
338.815
337.844
336.853
335.847
334.83
333.805
332.779
331.754
330.733
329.721
328.721
327.734
326.763
325.811
324.877
323.964
323.071
322.199
321.347
320.515
319.7
318.901
318.115
317.339
316.57
315.802
315.031
314.25
313.454
312.633
311.779
310.879
309.921
308.888
307.757
306.499
305.07
303.4
301.355
301.616
304.183
306.375
308.325
310.103
311.754
313.305
314.779
316.191
317.555
318.881
320.176
321.448
322.703
323.944
325.174
326.397
327.614
328.825
330.031
331.231
332.423
333.608
334.781
335.941
337.084
338.208
339.307
340.379
341.419
342.422
343.385
344.302
345.17
345.984
346.739
347.433
348.06
348.617
349.102
349.512
349.843
350.094
350.265
350.352
350.357
350.28
350.12
349.879
349.558
349.16
348.687
348.142
347.529
346.85
346.111
345.315
344.468
343.573
342.637
341.664
340.659
339.627
338.573
337.503
336.422
335.333
334.241
333.151
332.067
330.991
329.927
328.879
327.847
326.835
325.843
324.874
323.926
323.001
322.098
321.216
320.353
319.508
318.678
317.859
317.049
316.241
315.432
314.615
313.783
312.928
312.04
311.108
310.118
309.053
307.891
306.603
305.144
303.444
301.37
301.644
304.268
306.517
308.525
310.361
312.069
313.678
315.211
316.683
318.108
319.494
320.852
322.187
323.505
324.81
326.106
327.395
328.678
329.957
331.231
332.499
333.76
335.013
336.255
337.483
338.693
339.883
341.048
342.184
343.286
344.35
345.37
346.343
347.264
348.127
348.929
349.665
350.331
350.923
351.438
351.873
352.225
352.493
352.675
352.769
352.775
352.694
352.526
352.271
351.933
351.512
351.011
350.434
349.784
349.066
348.283
347.44
346.542
345.594
344.602
343.57
342.505
341.411
340.294
339.16
338.014
336.859
335.702
334.547
333.397
332.257
331.13
330.019
328.926
327.854
326.804
325.777
324.775
323.796
322.841
321.909
320.999
320.107
319.233
318.371
317.52
316.673
315.826
314.972
314.105
313.215
312.294
311.33
310.309
309.213
308.022
306.704
305.216
303.487
301.384
301.673
304.352
306.658
308.721
310.614
312.38
314.047
315.639
317.17
318.654
320.102
321.521
322.918
324.3
325.67
327.031
328.386
329.736
331.082
332.423
333.76
335.09
336.412
337.722
339.018
340.297
341.554
342.784
343.984
345.149
346.274
347.353
348.382
349.356
350.269
351.118
351.897
352.601
353.228
353.774
354.235
354.609
354.893
355.086
355.187
355.195
355.111
354.934
354.666
354.309
353.865
353.337
352.728
352.042
351.283
350.456
349.565
348.617
347.615
346.566
345.476
344.35
343.194
342.014
340.815
339.603
338.383
337.161
335.939
334.724
333.519
332.328
331.154
330
328.867
327.758
326.674
325.616
324.584
323.577
322.595
321.636
320.699
319.78
318.876
317.983
317.097
316.212
315.322
314.419
313.496
312.542
311.547
310.495
309.369
308.149
306.802
305.286
303.529
301.398
301.7
304.435
306.796
308.916
310.864
312.686
314.411
316.06
317.65
319.194
320.702
322.182
323.642
325.087
326.521
327.947
329.368
330.785
332.198
333.608
335.013
336.412
337.802
339.182
340.546
341.893
343.216
344.513
345.778
347.006
348.192
349.33
350.415
351.442
352.406
353.301
354.123
354.867
355.53
356.106
356.593
356.989
357.29
357.495
357.602
357.612
357.524
357.339
357.058
356.683
356.216
355.66
355.019
354.297
353.497
352.626
351.688
350.688
349.633
348.528
347.379
346.192
344.974
343.73
342.466
341.189
339.903
338.614
337.326
336.046
334.776
333.52
332.283
331.067
329.873
328.706
327.564
326.451
325.364
324.306
323.274
322.267
321.283
320.319
319.373
318.439
317.514
316.591
315.665
314.728
313.771
312.785
311.759
310.676
309.522
308.272
306.898
305.354
303.57
301.412
301.727
304.517
306.932
309.107
311.111
312.989
314.77
316.476
318.124
319.727
321.294
322.835
324.357
325.864
327.362
328.853
330.339
331.823
333.304
334.781
336.255
337.722
339.182
340.63
342.063
343.477
344.868
346.231
347.56
348.851
350.098
351.295
352.437
353.517
354.532
355.474
356.339
357.123
357.821
358.428
358.942
359.359
359.677
359.894
360.009
360.02
359.929
359.736
359.442
359.048
358.558
357.975
357.302
356.543
355.704
354.789
353.803
352.752
351.643
350.482
349.274
348.027
346.746
345.438
344.109
342.766
341.414
340.059
338.705
337.359
336.024
334.704
333.404
332.125
330.872
329.645
328.446
327.277
326.137
325.026
323.944
322.889
321.859
320.851
319.862
318.888
317.923
316.964
316.002
315.03
314.041
313.023
311.966
310.854
309.671
308.393
306.991
305.42
303.609
301.425
301.754
304.597
307.066
309.295
311.353
313.286
315.123
316.886
318.591
320.251
321.878
323.479
325.062
326.631
328.192
329.747
331.299
332.848
334.396
335.941
337.483
339.018
340.546
342.063
343.564
345.046
346.504
347.932
349.327
350.68
351.988
353.244
354.442
355.576
356.641
357.63
358.539
359.362
360.095
360.734
361.274
361.713
362.048
362.277
362.399
362.413
362.319
362.117
361.81
361.399
360.886
360.276
359.571
358.776
357.897
356.937
355.904
354.803
353.641
352.423
351.156
349.848
348.505
347.134
345.741
344.332
342.914
341.493
340.073
338.661
337.261
335.878
334.514
333.174
331.86
330.574
329.318
328.093
326.9
325.737
324.606
323.503
322.426
321.375
320.343
319.329
318.326
317.329
316.332
315.327
314.305
313.256
312.168
311.028
309.816
308.511
307.082
305.485
303.648
301.438
301.78
304.676
307.198
309.479
311.591
313.578
315.47
317.288
319.049
320.767
322.452
324.112
325.755
327.386
329.009
330.628
332.244
333.859
335.472
337.084
338.693
340.297
341.893
343.477
345.046
346.595
348.119
349.614
351.072
352.488
353.857
355.171
356.425
357.612
358.727
359.763
360.715
361.578
362.346
363.016
363.583
364.043
364.395
364.637
364.766
364.782
364.685
364.476
364.156
363.727
363.192
362.554
361.818
360.988
360.069
359.066
357.986
356.834
355.619
354.345
353.021
351.652
350.248
348.813
347.355
345.882
344.398
342.911
341.427
339.949
338.485
337.038
335.611
334.21
332.836
331.491
330.179
328.899
327.652
326.438
325.257
324.107
322.985
321.889
320.816
319.762
318.721
317.688
316.656
315.617
314.563
313.484
312.366
311.197
309.958
308.626
307.171
305.548
303.686
301.45
301.806
304.753
307.326
309.66
311.824
313.864
315.809
317.681
319.498
321.272
323.014
324.733
326.435
328.126
329.811
331.492
333.172
334.851
336.53
338.208
339.883
341.554
343.216
344.868
346.504
348.119
349.709
351.268
352.79
354.268
355.697
357.069
358.379
359.619
360.783
361.866
362.861
363.763
364.566
365.266
365.86
366.342
366.711
366.965
367.101
367.12
367.02
366.803
366.471
366.025
365.468
364.804
364.036
363.171
362.213
361.167
360.04
358.84
357.571
356.242
354.861
353.433
351.967
350.47
348.949
347.411
345.862
344.311
342.761
341.219
339.691
338.181
336.692
335.23
333.796
332.394
331.025
329.691
328.392
327.127
325.897
324.7
323.533
322.394
321.28
320.186
319.108
318.039
316.972
315.901
314.815
313.706
312.56
311.363
310.096
308.738
307.258
305.61
303.722
301.462
301.831
304.828
307.452
309.836
312.051
314.143
316.14
318.066
319.936
321.765
323.563
325.339
327.099
328.85
330.595
332.337
334.079
335.821
337.564
339.307
341.048
342.784
344.513
346.231
347.932
349.614
351.268
352.891
354.475
356.015
357.502
358.932
360.296
361.588
362.802
363.931
364.968
365.908
366.746
367.477
368.097
368.601
368.987
369.253
369.397
369.418
369.316
369.092
368.747
368.284
367.705
367.015
366.218
365.318
364.321
363.233
362.061
360.811
359.491
358.108
356.67
355.183
353.657
352.098
350.515
348.913
347.301
345.685
344.072
342.467
340.876
339.303
337.754
336.231
334.739
333.28
331.856
330.468
329.117
327.802
326.524
325.28
324.069
322.888
321.734
320.601
319.486
318.381
317.281
316.178
315.062
313.922
312.748
311.524
310.231
308.848
307.342
305.67
303.758
301.474
301.855
304.901
307.574
310.007
312.272
314.413
316.462
318.439
320.362
322.245
324.097
325.928
327.745
329.554
331.358
333.16
334.963
336.767
338.573
340.379
342.184
343.984
345.778
347.56
349.327
351.072
352.79
354.475
356.121
357.72
359.266
360.752
362.17
363.513
364.775
365.949
367.028
368.007
368.879
369.64
370.285
370.811
371.214
371.492
371.643
371.666
371.562
371.331
370.975
370.495
369.896
369.18
368.353
367.419
366.385
365.256
364.039
362.741
361.371
359.935
358.441
356.897
355.312
353.693
352.048
350.384
348.71
347.031
345.355
343.688
342.035
340.401
338.792
337.211
335.661
334.146
332.668
331.227
329.825
328.461
327.136
325.847
324.593
323.37
322.176
321.005
319.854
318.715
317.582
316.447
315.301
314.133
312.931
311.68
310.362
308.954
307.424
305.728
303.793
301.486
301.879
304.971
307.691
310.172
312.485
314.676
316.773
318.801
320.775
322.709
324.614
326.5
328.372
330.236
332.097
333.958
335.82
337.684
339.551
341.419
343.286
345.149
347.006
348.851
350.68
352.488
354.268
356.015
357.72
359.378
360.981
362.521
363.992
365.385
366.695
367.913
369.033
370.048
370.954
371.744
372.415
372.962
373.381
373.671
373.83
373.856
373.75
373.512
373.145
372.65
372.03
371.29
370.434
369.467
368.396
367.227
365.967
364.623
363.203
361.715
360.167
358.567
356.925
355.247
353.542
351.818
350.082
348.342
346.605
344.877
343.164
341.471
339.803
338.164
336.559
334.989
333.458
331.965
330.514
329.102
327.731
326.398
325.101
323.838
322.605
321.398
320.211
319.038
317.873
316.708
315.533
314.337
313.108
311.832
310.489
309.056
307.503
305.784
303.826
301.497
301.901
305.039
307.805
310.331
312.691
314.928
317.073
319.149
321.172
323.156
325.113
327.05
328.975
330.894
332.81
334.727
336.646
338.569
340.495
342.422
344.35
346.274
348.192
350.098
351.988
353.857
355.697
357.502
359.266
360.981
362.639
364.233
365.754
367.197
368.552
369.813
370.972
372.024
372.963
373.782
374.478
375.045
375.481
375.783
375.949
375.978
375.87
375.626
375.248
374.737
374.098
373.334
372.45
371.452
370.346
369.138
367.835
366.446
364.979
363.441
361.84
360.187
358.488
356.753
354.99
353.207
351.413
349.613
347.817
346.029
344.258
342.507
340.783
339.088
337.429
335.806
334.223
332.681
331.18
329.723
328.306
326.931
325.593
324.29
323.02
321.777
320.556
319.351
318.155
316.96
315.757
314.534
313.279
311.978
310.611
309.155
307.579
305.838
303.859
301.508
301.923
305.104
307.913
310.484
312.888
315.17
317.36
319.482
321.552
323.585
325.59
327.577
329.553
331.524
333.493
335.464
337.439
339.417
341.4
343.385
345.37
347.353
349.33
351.295
353.244
355.171
357.069
358.932
360.752
362.521
364.233
365.878
367.449
368.938
370.338
371.64
372.839
373.926
374.896
375.743
376.463
377.05
377.502
377.815
377.989
378.021
377.911
377.662
377.273
376.748
376.09
375.304
374.393
373.365
372.224
370.979
369.636
368.204
366.691
365.104
363.454
361.748
359.995
358.206
356.387
354.547
352.695
350.839
348.985
347.141
345.312
343.506
341.727
339.979
338.266
336.593
334.96
333.369
331.823
330.32
328.861
327.444
326.066
324.726
323.419
322.142
320.888
319.652
318.426
317.202
315.972
314.723
313.444
312.118
310.728
309.25
307.652
305.89
303.89
301.518
301.944
305.166
308.017
310.629
313.075
315.399
317.633
319.799
321.914
323.992
326.044
328.079
330.104
332.124
334.144
336.166
338.193
340.226
342.262
344.302
346.343
348.382
350.415
352.437
354.442
356.425
358.379
360.296
362.17
363.992
365.754
367.449
369.068
370.602
372.044
373.387
374.622
375.743
376.744
377.618
378.361
378.968
379.435
379.76
379.94
379.975
379.865
379.61
379.212
378.673
377.998
377.189
376.254
375.196
374.023
372.743
371.361
369.888
368.33
366.698
364.999
363.243
361.439
359.597
357.724
355.83
353.924
352.012
350.104
348.205
346.323
344.463
342.631
340.832
339.069
337.346
335.665
334.029
332.438
330.892
329.391
327.934
326.519
325.143
323.801
322.491
321.205
319.939
318.685
317.434
316.177
314.904
313.601
312.252
310.84
309.341
307.722
305.94
303.919
301.528
301.963
305.224
308.114
310.765
313.251
315.616
317.891
320.098
322.256
324.377
326.473
328.553
330.623
332.691
334.759
336.83
338.907
340.99
343.078
345.17
347.264
349.356
351.442
353.517
355.576
357.612
359.619
361.588
363.513
365.385
367.197
368.938
370.602
372.179
373.663
375.043
376.314
377.468
378.497
379.397
380.163
380.788
381.27
381.606
381.793
381.832
381.72
381.46
381.053
380.502
379.81
378.981
378.022
376.937
375.733
374.419
373.001
371.488
369.889
368.213
366.468
364.665
362.812
360.92
358.996
357.051
355.092
353.129
351.168
349.217
347.284
345.373
343.491
341.643
339.832
338.063
336.337
334.656
333.023
331.436
329.896
328.401
326.95
325.539
324.164
322.822
321.507
320.212
318.93
317.654
316.373
315.075
313.749
312.379
310.946
309.427
307.789
305.987
303.948
301.537
301.981
305.279
308.205
310.893
313.416
315.819
318.132
320.378
322.575
324.737
326.874
328.996
331.11
333.222
335.335
337.452
339.576
341.706
343.843
345.984
348.127
350.269
352.406
354.532
356.641
358.727
360.783
362.802
364.775
366.695
368.552
370.338
372.044
373.663
375.184
376.601
377.905
379.09
380.147
381.072
381.858
382.501
382.998
383.344
383.539
383.58
383.468
383.204
382.788
382.225
381.518
380.67
379.688
378.578
377.346
375.999
374.547
372.998
371.359
369.642
367.854
366.006
364.108
362.168
360.197
358.203
356.195
354.182
352.172
350.173
348.191
346.232
344.303
342.409
340.553
338.739
336.97
335.248
333.575
331.949
330.372
328.842
327.356
325.912
324.507
323.135
321.791
320.469
319.162
317.861
316.557
315.237
313.89
312.499
311.047
309.508
307.851
306.031
303.974
301.546
301.998
305.33
308.289
311.012
313.569
316.007
318.355
320.638
322.871
325.071
327.246
329.408
331.562
333.714
335.869
338.029
340.196
342.371
344.553
346.739
348.929
351.118
353.301
355.474
357.63
359.763
361.866
363.931
365.949
367.913
369.813
371.64
373.387
375.043
376.601
378.052
379.387
380.601
381.684
382.632
383.438
384.099
384.609
384.965
385.166
385.211
385.098
384.83
384.408
383.834
383.112
382.247
381.244
380.11
378.851
377.476
375.992
374.408
372.733
370.977
369.15
367.26
365.319
363.335
361.319
359.28
357.226
355.168
353.112
351.067
349.039
347.036
345.063
343.125
341.227
339.372
337.563
335.802
334.091
332.429
330.817
329.254
327.736
326.262
324.827
323.427
322.057
320.71
319.379
318.055
316.729
315.388
314.021
312.611
311.14
309.584
307.91
306.072
303.999
301.554
302.013
305.376
308.367
311.12
313.709
316.179
318.56
320.875
323.143
325.376
327.587
329.785
331.975
334.165
336.359
338.558
340.765
342.981
345.204
347.433
349.665
351.897
354.123
356.339
358.539
360.715
362.861
364.968
367.028
369.033
370.972
372.839
374.622
376.314
377.905
379.387
380.752
381.992
383.1
384.07
384.895
385.571
386.094
386.46
386.667
386.715
386.603
386.331
385.902
385.318
384.583
383.703
382.681
381.525
380.242
378.84
377.326
375.711
374.003
372.212
370.347
368.419
366.439
364.415
362.357
360.276
358.18
356.079
353.981
351.894
349.824
347.779
345.766
343.788
341.85
339.957
338.111
336.315
334.569
332.874
331.23
329.635
328.088
326.585
325.124
323.698
322.303
320.933
319.58
318.234
316.888
315.528
314.143
312.715
311.227
309.654
307.964
306.111
304.022
301.562
302.027
305.417
308.436
311.218
313.835
316.334
318.744
321.089
323.387
325.652
327.895
330.125
332.349
334.573
336.801
339.036
341.28