/*--------------------------------*- C++ -*----------------------------------*\
  =========                 |
  \\      /  F ield         | OpenFOAM: The Open Source CFD Toolbox
   \\    /   O peration     | Website:  https://openfoam.org
    \\  /    A nd           | Version:  9
     \\/     M anipulation  |
\*---------------------------------------------------------------------------*/
FoamFile
{
    format      ascii;
    class       volScalarField;
    location    "0.45";
    object      gradTy;
}
// * * * * * * * * * * * * * * * * * * * * * * * * * * * * * * * * * * * * * //

dimensions      [0 -1 0 1 0 0 0];

internalField   nonuniform List<scalar> 
200000
(
5125.56
10342.4
13604.3
15943.7
17773
19285.3
20583.1
21727
22755
23693
24558.8
25365.6
26123.1
26838.7
27518.1
28165.8
28785.2
29379.2
29949.9
30498.9
31027.5
31536.7
32027.2
32499.4
32953.6
33389.9
33808.2
34208.4
34590.3
34953.4
35297.5
35622.1
35926.8
36211
36474.3
36716.3
36936.4
37134.2
37309.3
37461.5
37590.3
37695.6
37777.2
37834.9
37868.8
37878.8
37865.2
37828
37767.6
37684.3
37578.6
37451
37301.9
37132.2
36942.4
36733.4
36505.9
36260.8
35999
35721.4
35428.9
35122.4
34803
34471.4
34128.7
33775.7
33413.2
33042.1
32663.1
32276.8
31883.7
31484.5
31079.4
30668.7
30252.6
29830.9
29403.6
28970.2
28530.1
28082.6
27626.6
27160.6
26683
26191.6
25683.8
25156.2
24604.9
24024.8
23409.8
22751.8
22040.6
21262.6
20399.1
19424
18298.4
16961.4
15309.9
13150.3
10069.5
5034.47
2399.57
6079.2
8826
10959.8
12693.1
14154.4
15422.4
16547.4
17562.8
18491.9
19351.4
20153.4
20907.2
21620
22297.2
22943.1
23561.1
24153.9
24723.6
25271.8
25799.8
26308.5
26798.5
27270.3
27724.2
28160.2
28578.4
28978.4
29360.1
29723.2
30067.2
30391.7
30696.3
30980.5
31243.8
31485.7
31705.8
31903.6
32078.8
32230.9
32359.8
32465.1
32546.7
32604.4
32638.3
32648.4
32634.7
32597.6
32537.2
32453.9
32348.2
32220.6
32071.6
31901.8
31712.1
31503.1
31275.6
31030.5
30768.7
30491.1
30198.5
29892.1
29572.6
29241.1
28898.4
28545.5
28183
27812
27433
27046.7
26653.8
26254.7
25849.7
25439.2
25023.3
24601.9
24174.9
23741.8
23302.2
22855.3
22399.9
21934.7
21458
20967.8
20461.3
19935.5
19386.5
18809.2
18197.8
17544.6
16839.8
16070.6
15219.7
14263.4
13167.7
11881.7
10326.1
8372
5806.25
2308.49
1475.88
4125.35
6356.47
8225.76
9814.89
11192.1
12407.9
13498.6
14490.6
15403
16250.3
17043.1
17789.9
18497.2
19170
19812.5
20427.7
21018.2
21586
22132.6
22659.3
23166.9
23656
24127.1
24580.4
25015.9
25433.6
25833.3
26214.7
26577.6
26921.4
27245.8
27550.3
27834.4
28097.6
28339.5
28559.6
28757.4
28932.6
29084.7
29213.6
29319
29400.6
29458.3
29492.3
29502.4
29488.8
29451.6
29391.3
29308.1
29202.4
29074.8
28925.8
28756
28566.3
28357.3
28129.8
27884.7
27622.9
27345.3
27052.8
26746.4
26427
26095.5
25752.8
25399.9
25037.6
24666.6
24287.8
23901.7
23508.9
23110
22705.4
22295.2
21879.7
21458.8
21032.4
20600.1
20161.4
19715.5
19261.4
18797.7
18323
17835
17331.3
16809
16264.2
15692.5
15088.1
14444
13751.3
12998.7
12171.3
11249.2
10205.6
9003.65
7592.23
5902.59
3852.47
1384.82
1067.94
3100.73
4935.07
6559.15
7995.58
9275.04
10426.1
11472.5
12433.2
13322.8
14153.1
14933
15669.8
16369.2
17035.7
17673.1
18284.2
18871.3
19436.4
19980.7
20505.5
21011.5
21499.3
21969.3
22421.7
22856.4
23273.5
23672.6
24053.6
24416.1
24759.7
25083.9
25388.2
25672.2
25935.3
26177.1
26397.2
26595
26770.2
26922.4
27051.3
27156.6
27238.3
27296.1
27330.1
27340.3
27326.7
27289.6
27229.3
27146.1
27040.5
26912.9
26763.9
26594.2
26404.5
26195.5
25968.1
25723
25461.2
25183.7
24891.2
24584.8
24265.4
23934
23591.4
23238.6
22876.4
22505.6
22127
21741.1
21348.7
20950.2
20545.9
20136.3
19721.4
19301.3
18875.8
18444.6
18007.2
17562.9
17110.6
16649.3
16177.2
15692.6
15193
14675.7
14137.1
13573.2
12978.7
12347.5
11671.8
10941.9
10145.7
9267.89
8288.96
7184.67
5925.89
4481.38
2827.97
976.932
846.423
2495.17
4041.06
5461.5
6756.95
7938.55
9020.74
10017.8
10942.2
11804.9
12614.6
13378.6
14103
14792.5
15451.1
16082.1
16687.9
17270.7
17832.1
18373.5
18895.8
19399.7
19885.8
20354.3
20805.4
21239.1
21655.4
22053.8
22434.3
22796.3
23139.4
23463.3
23767.4
24051.2
24314.2
24556
24776
24973.8
25148.9
25301.1
25430.1
25535.5
25617.2
25675.1
25709.2
25719.4
25705.9
25668.9
25608.6
25525.5
25419.9
25292.4
25143.5
24973.8
24784.2
24575.2
24347.8
24102.8
23841.1
23563.5
23271.1
22964.8
22645.5
22314.2
21971.7
21619.1
21257.1
20886.5
20508.1
20122.6
19730.6
19332.6
18928.9
18520
18106
17686.9
17262.6
16832.9
16397.2
15954.9
15505.1
15046.7
14578.2
14097.8
13603.5
13092.5
12561.8
12007.7
11425.6
10810.2
10154.9
9451.88
8691.76
7863.23
6953.08
5946.55
4828.63
3587.64
2222.58
755.466
708.175
2101.97
3437.48
4694.95
5868.03
6958.74
7973.38
8919.8
9805.95
10639.2
11426.1
12172.2
12882.3
13560.3
14209.6
14832.9
15432.5
16010.1
16567.2
17104.9
17624.2
18125.5
18609.5
19076.2
19525.8
19958.3
20373.4
20771
21150.7
21512.1
21854.8
22178.3
22482
22765.6
23028.5
23270.1
23490
23687.7
23862.9
24015.1
24144.1
24249.5
24331.3
24389.3
24423.4
24433.7
24420.3
24383.4
24323.2
24240.2
24134.7
24007.2
23858.4
23688.8
23499.2
23290.4
23063
22818.1
22556.4
22279
21986.7
21680.5
21361.3
21030.1
20687.9
20335.4
19973.7
19603.4
19225.4
18840.4
18448.9
18051.5
17648.7
17240.7
16827.7
16409.9
15987.1
15559.1
15125.5
14685.8
14239
13784.1
13319.8
12844.6
12356.4
11853
11331.5
10788.7
10220.8
9623.22
8990.63
8316.9
7594.95
6816.87
5974.13
5058.33
4062.64
2984.46
1829.61
617.298
613.701
1828.02
3006.67
4134.56
5204.17
6213.76
7165.23
8062.46
8910.14
9713.1
10475.9
11202.8
11897.3
12562.7
13201.6
13816.3
14408.7
14980.4
15532.5
16066.1
16581.8
17080.2
17561.6
18026.2
18474
18904.9
19318.8
19715.3
20094.1
20454.7
20796.8
21119.8
21423.2
21706.4
21969
22210.4
22430.2
22627.9
22803
22955.2
23084.2
23189.7
23271.6
23329.6
23363.8
23374.2
23360.9
23324.1
23264.1
23181.2
23075.8
22948.4
22799.7
22630.3
22440.8
22232
22004.8
21760
21498.5
21221.2
20929
20623
20304
19973.1
19631.1
19279
18917.6
18547.7
18170.2
17785.7
17394.9
16998.4
16596.4
16189.5
15777.9
15361.6
14940.6
14514.7
14083.6
13646.8
13203.4
12752.7
12293.3
11823.9
11342.7
10847.7
10336.5
9806.2
9253.67
8675.16
8066.45
7422.83
6739.16
6010.07
5230.3
4395.43
3502.99
2554.18
1555.98
522.931
545.043
1626.85
2685.43
3709.59
4692.49
5631.07
6525.05
7375.98
8186.37
8959.23
9697.64
10404.6
11082.8
11734.7
12362.4
12967.9
13552.5
14117.6
14664.1
15193
15704.7
16199.7
16678.2
17140.4
17586.1
18015.2
18427.5
18822.8
19200.5
19560.2
19901.5
20223.9
20526.8
20809.6
21071.9
21313.1
21532.7
21730.2
21905.3
22057.5
22186.5
22292
22373.9
22432.1
22466.4
22476.9
22463.7
22427
22367.1
22284.4
22179.1
22051.9
21903.4
21734.1
21544.8
21336.2
21109.2
20864.5
20603.2
20326.1
20034.2
19728.5
19409.8
19079.2
18737.5
18385.8
18024.9
17655.6
17278.7
16895
16505
16109.4
15708.6
15303
14892.9
14478.3
14059.4
13636
13207.7
12774.1
12334.7
11888.5
11434.6
10971.6
10498
10012.2
9511.92
8994.92
8458.5
7899.67
7315.14
6701.38
6054.75
5371.7
4649.15
3885
3079
2233.65
1355.24
454.415
492.891
1473.1
2437.42
3377.53
4287.7
5164.64
6007.11
6815.29
7590.36
8334.04
9048.31
9735.22
10396.7
11034.7
11650.8
12246.3
12822.6
13380.6
13921.2
14444.9
14952.2
15443.4
15918.7
16378
16821.3
17248.4
17659
18052.7
18429.2
18787.8
19128.2
19449.8
19752.1
20034.4
20296.3
20537.1
20756.5
20953.8
21128.8
21280.9
21409.9
21515.4
21597.4
21655.6
21690
21700.7
21687.6
21651.1
21591.4
21508.8
21403.8
21276.8
21128.5
20959.4
20770.3
20562
20335.2
20090.9
19829.9
19553.1
19261.5
18956.1
18637.8
18307.7
17966.5
17615.4
17255.1
16886.5
16510.4
16127.5
15738.6
15344.1
14944.6
14540.6
14132.2
13719.7
13303.1
12882.4
12457.3
12027.4
11592.2
11151
10702.9
10246.8
9781.44
9305.21
8816.41
8313.09
7793.07
7253.97
6693.27
6108.37
5496.74
4856.09
4184.72
3481.85
2748.22
1986.55
1202.04
402.447
451.924
1351.85
2240.46
3111.51
3960.34
4783.87
5580.48
6349.66
7091.75
7807.61
8498.44
9165.58
9810.4
10434.2
11038.2
11623.5
12191.1
12741.6
13275.7
13793.8
14296.3
14783.4
15255.1
15711.4
16152
16576.8
16985.4
17377.4
17752.3
18109.7
18449
18769.7
19071.2
19352.9
19614.2
19854.6
20073.6
20270.7
20445.5
20597.5
20726.4
20832
20914
20972.2
21006.8
21017.5
21004.7
20968.4
20908.9
20826.5
20721.7
20595
20447
20278.2
20089.5
19881.5
19655.1
19411.1
19150.5
18874.2
18583.1
18278.2
17960.5
17630.9
17290.4
16939.9
16580.4
16212.7
15837.5
15455.8
15068
14675
14277.1
13874.8
13468.4
13058.2
12644.2
12226.5
11804.9
11379
10948.4
10512.6
10070.7
9621.88
9164.96
8698.68
8221.59
7732.09
7228.42
6708.72
6171.07
5613.58
5034.51
4432.44
3806.48
3156.58
2483.84
1790.76
1081.49
361.714
418.872
1253.76
2080.33
2893.83
3690.49
4467.6
5223.47
5957.27
6668.83
7358.46
8026.8
8674.66
9302.96
9912.6
10504.4
11079.2
11637.7
12180.3
12707.6
13219.9
13717.3
14199.9
14667.7
15120.5
15558.1
15980.3
16386.6
16776.7
17149.9
17505.8
17843.9
18163.4
18464
18744.9
19005.5
19245.4
19464
19660.7
19835.2
19987.1
20115.9
20221.4
20303.4
20361.7
20396.3
20407.3
20394.6
20358.5
20299.3
20217.2
20112.8
19986.4
19838.7
19670.4
19482.1
19274.5
19048.6
18805.2
18545.1
18269.4
17978.9
17674.7
17357.6
17028.8
16689.2
16339.6
15981.1
15614.4
15240.5
14860
14473.7
14082.2
13686.1
13285.9
12881.8
12474.1
12063.1
11648.7
11230.8
10809.2
10383.6
9953.41
9518.06
9076.75
8628.55
8172.4
7707.1
7231.35
6743.75
6242.86
5727.21
5195.45
4646.38
4079.16
3493.38
2889.34
2268.19
1632.1
984.278
328.955
391.607
1172.68
1947.49
2712.35
3464.22
4200.77
4920.4
5622.14
6305.54
6970.58
7617.5
8246.75
8858.86
9454.43
10034
10598.2
11147.3
11681.9
12202
12708.1
13200
13677.8
14141.3
14590.4
15024.8
15444.1
15847.8
16235.6
16606.9
16961.1
17297.6
17615.9
17915.3
18195.2
18455.1
18694.3
18912.3
19108.6
19282.7
19434.2
19562.9
19668.3
19750.2
19808.6
19843.4
19854.5
19842
19806.2
19747.3
19665.6
19561.5
19435.6
19288.4
19120.6
18932.8
18725.9
18500.6
18257.9
17998.5
17723.5
17433.9
17130.5
16814.4
16486.5
16147.9
15799.5
15442.2
15076.8
14704.3
14325.4
13940.8
13551.2
13157.2
12759.2
12357.7
11952.9
11545.1
11134.2
10720.4
10303.4
9882.98
9458.74
9030.15
8596.57
8157.24
7711.29
7257.73
6795.52
6323.55
5840.7
5345.86
4838.07
4316.51
3780.68
3230.46
2666.29
2089.23
1501.06
904.285
302.053
368.682
1104.41
1835.31
2558.5
3271.52
3972.38
4659.63
5332.27
5989.74
6631.77
7258.37
7869.7
8466.05
9047.75
9615.14
10168.5
10708.2
11234.4
11747.2
12246.6
12732.8
13205.4
13664.4
14109.4
14540.2
14956.3
15357.2
15742.4
16111.5
16463.7
16798.5
17115.2
17413.3
17692
17950.9
18189.2
18406.5
18602.2
18775.9
18927.1
19055.4
19160.7
19242.6
19301
19335.8
19347.1
19334.8
19299.3
19240.8
19159.5
19056
18930.6
18784
18616.9
18429.8
18223.6
17999.2
17757.3
17498.8
17224.8
16936.2
16633.9
16318.9
15992.3
15655
15307.9
14952.1
14588.3
14217.5
13840.5
13457.9
13070.5
12678.8
12283.4
11884.7
11483.1
11078.7
10671.8
10262.3
9850.2
9435.25
9017.17
8595.54
8169.85
7739.48
7303.71
6861.76
6412.78
5955.9
5490.24
5015
4529.44
4033.04
3525.48
3006.82
2477.5
1938.44
1391.07
837.326
279.566
349.071
1045.93
1739.02
2426.04
3104.98
3774.17
4432.32
5078.46
5711.97
6332.48
6939.81
7533.94
8114.97
8683.03
9238.28
9780.87
10310.9
10828.5
11333.6
11826.3
12306.3
12773.4
13227.5
13668.1
14095
14507.5
14905.2
15287.6
15654.1
16004.1
16336.8
16651.8
16948.2
17225.6
17483.2
17720.5
17936.9
18131.9
18305
18455.7
18583.7
18688.7
18770.5
18828.9
18863.8
18875.2
18863.3
18828.1
18770
18689.3
18586.3
18461.6
18315.8
18149.4
17963.2
17758
17534.5
17293.7
17036.4
16763.6
16476.2
16175.3
15861.8
15536.7
15200.9
14855.6
14501.5
14139.7
13770.9
13396
13015.7
12630.8
12241.8
11849.3
11453.8
11055.7
10655.1
10252.4
9847.55
9440.57
9031.34
8619.63
8205.15
7787.46
7366.08
6940.44
6509.9
6073.79
5631.42
5182.11
4725.25
4260.3
3786.9
3304.88
2814.33
2315.66
1809.65
1297.41
780.435
260.483
332.026
995.066
1655.11
2310.32
2959.03
3599.85
4231.64
4853.5
5464.8
6065.1
6654.13
7231.74
7797.87
8352.52
8895.71
9427.46
9947.75
10456.6
10953.8
11439.3
11912.8
12374.1
12822.9
13258.8
13681.3
14090
14484.2
14863.4
15227
15574.3
15904.8
16217.6
16512.2
16788
17044.1
17280.2
17495.5
17689.6
17861.9
18012
18139.6
18244.2
18325.8
18384.2
18419.1
18430.8
18419.1
18384.4
18326.7
18246.6
18144.4
18020.5
17875.5
17710.1
17525
17321
17098.7
16859.2
16603.3
16332
16046.2
15746.9
15435.1
15111.8
14778
14434.7
14082.7
13723.1
13356.7
12984.3
12606.7
12224.6
11838.7
11449.5
11057.6
10663.2
10266.8
9868.61
9468.69
9067.13
8663.87
8258.76
7851.57
7441.98
7029.62
6614.01
6194.67
5771.05
5342.6
4908.81
4469.2
4023.37
3571.05
3112.15
2646.78
2175.29
1698.27
1216.62
731.443
244.064
316.986
950.148
1580.91
2207.76
2829.36
3444.5
4052.21
4651.66
5242.24
5823.49
6395.07
6956.75
7508.37
8049.83
8581.02
9101.86
9612.25
10112
10601.1
11079.1
11545.9
12001
12444.2
12874.9
13292.7
13697.1
14087.4
14463
14823.4
15167.8
15495.5
15806
16098.5
16372.2
16626.7
16861.3
17075.3
17268.2
17439.6
17589
17716
17820.2
17901.6
17959.8
17994.8
18006.6
17995.3
17961
17904
17824.5
17723.1
17600.2
17456.3
17292.1
17108.3
16905.6
16684.8
16446.9
16192.7
15923.2
15639.2
15341.9
15032.2
14711.1
14379.6
14038.6
13689.2
13332.2
12968.5
12599
12224.5
11845.7
11463.2
11077.7
10689.6
10299.5
9907.6
9514.24
9119.59
8723.74
8326.7
7928.39
7528.66
7127.27
6723.93
6318.27
5909.91
5498.41
5083.34
4664.29
4240.88
3812.82
3379.9
2942.06
2499.38
2052.15
1600.83
1146.08
688.726
229.759
303.52
909.904
1514.34
2115.6
2712.57
3304.22
3889.71
4468.31
5039.43
5602.6
6157.45
6703.71
7241.14
7769.55
8288.78
8798.65
9298.96
9789.52
10270.1
10740.3
11199.9
11648.5
12085.6
12510.8
12923.5
13323.1
13709.1
14080.8
14437.5
14778.6
15103.3
15411
15701
15972.5
16225
16457.8
16670.3
16861.9
17032.1
17180.6
17306.8
17410.6
17491.6
17549.6
17584.7
17596.7
17585.7
17551.9
17495.5
17416.9
17316.5
17194.7
17052
16889.2
16706.9
16505.9
16286.9
16050.9
15798.7
15531.3
15249.6
14954.6
14647.3
14328.8
13999.9
13661.8
13315.3
12961.3
12600.9
12234.7
11863.7
11488.6
11110
10728.5
10344.8
9959.21
9572.21
9184.06
8795
8405.17
8014.63
7623.35
7231.25
6838.16
6443.86
6048.07
5650.49
5250.77
4848.57
4443.56
4035.44
3623.96
3208.98
2790.42
2368.34
1942.96
1514.61
1083.76
651.04
217.146
291.289
873.331
1453.78
2031.63
2605.95
3175.87
3740.66
4299.66
4852.33
5398.21
5936.93
6468.17
6991.65
7507.13
8014.37
8513.14
9003.19
9484.24
9955.99
10418.1
10870.1
11311.7
11742.4
12161.5
12568.6
12963.1
13344.4
13711.6
14064.3
14401.6
14722.9
15027.5
15314.6
15583.6
15833.7
16064.5
16275.1
16465.2
16634.1
16781.4
16906.8
17009.9
17090.5
17148.3
17183.3
17195.5
17184.9
17151.7
17096.1
17018.4
16919.1
16798.6
16657.4
16496.2
16315.7
16116.6
15899.7
15665.9
15416
15151.1
14872
14579.8
14275.4
13959.9
13634.1
13299.2
12956.1
12605.7
12248.9
11886.6
11519.5
11148.5
10774.2
10397.3
10018.3
9637.79
9256.08
8873.54
8490.44
8106.96
7723.2
7339.19
6954.9
6570.23
6185.01
5799.04
5412.07
5023.84
4634.07
4242.48
3848.84
3452.94
3054.63
2653.85
2250.62
1845.09
1437.47
1028.1
617.41
205.897
280.021
839.623
1397.92
1954.07
2507.3
3056.88
3602.15
4142.56
4677.59
5206.81
5729.85
6246.36
6756.04
7258.62
7753.8
8241.32
8720.86
9192.11
9654.7
10108.3
10552.3
10986.5
11410.2
11822.9
12223.9
12612.8
12988.8
13351.2
13699.3
14032.4
14349.9
14650.9
14934.8
15200.8
15448.3
15676.6
15885.2
16073.4
16240.8
16386.8
16511.2
16613.5
16693.5
16751
16785.9
16798.3
16788.1
16755.6
16700.8
16624.2
16526.2
16407.1
16267.7
16108.3
15929.9
15733
15518.5
15287.3
15040.2
14778.1
14502.1
14213
13912
13599.9
13277.8
12946.6
12607.4
12261
11908.3
11550.3
11187.7
10821.4
10451.9
10080
9706.3
9331.22
8955.24
8578.73
8201.97
7825.19
7448.53
7072.06
6695.8
6319.68
5943.62
5567.44
5190.97
4813.99
4436.27
4057.59
3677.74
3296.54
2913.85
2529.59
2143.76
1756.42
1367.7
977.82
587.06
195.749
269.497
808.128
1345.68
1881.46
2414.81
2945.11
3471.81
3994.39
4512.39
5025.41
5533.08
6035.04
6531
7020.63
7503.62
7979.66
8448.41
8909.51
9362.56
9807.15
10242.8
10669
11085.3
11491
11885.5
12268.2
12638.4
12995.4
13338.5
13667
13980.1
14277.1
14557.3
14820
15064.5
15290.1
15496.2
15682.3
15847.9
15992.4
16115.5
16216.9
16296.2
16353.4
16388.2
16400.7
16391
16359.1
16305.4
16230
16133.4
16016.1
15878.5
15721.3
15545.2
15350.9
15139.2
14910.9
14666.9
14408.2
14135.7
13850.3
13553
13244.9
12926.9
12600
12265.2
11923.4
11575.4
11222.3
10864.7
10503.5
10139.4
9773.07
9405.08
9035.96
8666.19
8296.14
7926.15
7556.45
7187.23
6818.59
6450.59
6083.22
5716.41
5350.05
4984
4618.1
4252.14
3885.94
3519.31
3152.09
2784.15
2415.37
2045.73
1675.22
1303.91
931.902
559.365
186.493
259.536
778.308
1296.19
1812.59
2326.97
2838.81
3347.6
3852.91
4354.33
4851.45
5343.94
5831.44
6313.64
6790.2
7260.8
7725.09
8182.71
8633.27
9076.35
9511.5
9938.22
10356
10764.3
11162.4
11549.8
11925.8
12289.7
12640.8
12978.4
13301.7
13610
13902.6
14178.6
14437.5
14678.6
14901.1
15104.5
15288.1
15451.6
15594.4
15716
15816.3
15894.9
15951.5
15986.3
15998.9
15989.7
15958.6
15905.9
15831.9
15736.9
15621.5
15486.1
15331.3
15157.9
14966.5
14757.9
14533
14292.6
14037.7
13769.1
13487.9
13195
12891.4
12578
12256
11926.1
11589.4
11246.8
10899
10547.1
10191.6
9833.46
9473.21
9111.5
8748.88
8385.81
8022.71
7659.93
7297.72
6936.31
6575.84
6216.38
5857.95
5500.54
5144.07
4788.43
4433.48
4079.06
3725.01
3371.15
3017.34
2663.42
2309.28
1954.85
1600.07
1244.94
889.504
533.811
177.956
249.987
749.713
1248.7
1746.46
2242.53
2736.46
3227.84
3716.26
4201.34
4682.75
5160.12
5633.13
6101.45
6564.76
7022.69
7474.9
7921.01
8360.6
8793.23
9218.43
9635.69
10044.5
10444.2
10834.2
11213.9
11582.7
11939.7
12284.3
12615.8
12933.3
13236.3
13523.9
13795.4
14050
14287.2
14506.2
14706.5
14887.4
15048.5
15189.3
15309.3
15408.3
15485.9
15542
15576.5
15589.4
15580.6
15550.4
15498.8
15426.3
15333.2
15219.9
15087
14934.9
14764.5
14576.4
14371.4
14150.3
13913.9
13663.2
13399.2
13122.6
12834.6
12536
12228
11911.3
11587
11256.1
10919.3
10577.7
10231.9
9882.83
9531.17
9177.61
8822.76
8467.17
8111.34
7755.7
7400.6
7046.34
6693.14
6341.18
5990.57
5641.35
5293.52
4947.05
4601.85
4257.81
3914.79
3572.65
3231.22
2890.34
2549.88
2209.7
1869.69
1529.76
1189.85
849.927
509.973
169.994
240.725
721.97
1202.6
1682.21
2160.41
2636.81
3111.06
3582.8
4051.69
4517.41
4979.63
5438.03
5892.28
6342.05
6786.99
7226.73
7660.88
8089.02
8510.68
8925.38
9332.61
9731.8
10122.4
10503.7
10875.1
11235.9
11585.5
11923
12247.8
12559
12856.1
13138.2
13404.6
13654.5
13887.4
14102.5
14299.3
14477.1
14635.5
14774
14892.1
14989.6
15066.2
15121.7
15156
15168.9
15160.7
15131.4
15081.1
15010.3
14919.2
14808.3
14678
14529.1
14362
14177.6
13976.5
13759.7
13527.8
13281.9
13022.9
12751.6
12469
12176.1
11873.9
11563.3
11245.2
10920.7
10590.4
10255.5
9916.55
9574.47
9229.96
8883.7
8536.31
8188.35
7840.33
7492.68
7145.77
6799.92
6455.38
6112.33
5770.9
5431.17
5093.16
4756.85
4422.18
4089.07
3757.38
3426.99
3097.74
2769.47
2442.04
2115.28
1789.08
1463.29
1137.83
812.587
487.496
162.49
231.644
694.761
1157.37
1619.12
2079.7
2538.78
2996.04
3451.17
3903.86
4353.82
4800.74
5244.31
5684.21
6120.12
6551.67
6978.5
7400.21
7816.36
8226.49
8630.12
9026.7
9415.68
9796.46
10168.4
10530.9
10883.2
11224.6
11554.4
11871.8
12176.3
12466.8
12742.9
13003.6
13248.4
13476.5
13687.3
13880.2
14054.5
14209.9
14345.8
14461.9
14557.7
14633.1
14687.8
14721.7
14734.8
14727.1
14698.8
14649.9
14580.9
14492.1
14383.8
14256.5
14111
13947.7
13767.3
13570.7
13358.5
13131.7
12891.1
12637.6
12372.1
12095.6
11809
11513.3
11209.4
10898.2
10580.7
10257.7
9930.07
9598.67
9264.25
8927.54
8589.23
8249.93
7910.21
7570.58
7231.49
6893.31
6556.38
6220.95
5887.23
5555.37
5225.45
4897.53
4571.6
4247.61
3925.5
3605.14
3286.43
2969.2
2653.3
2338.57
2024.86
1711.99
1399.81
1088.19
776.992
466.081
155.341
222.654
667.819
1112.56
1556.6
1999.66
2441.45
2881.72
3320.18
3756.56
4190.58
4621.97
5050.42
5475.62
5897.26
6314.97
6728.39
7137.12
7540.73
7938.74
8330.66
8715.96
9094.07
9464.4
9826.31
10179.1
10522.2
10854.8
11176.3
11485.8
11782.7
12066.2
12335.6
12590.2
12829.3
13052.1
13258.1
13446.7
13617.2
13769.3
13902.3
14016
14110
14184
14237.8
14271.3
14284.5
14277.4
14250.1
14202.9
14135.8
14049.4
13944
13820.1
13678.2
13519
13343.2
13151.4
12944.5
12723.2
12488.5
12241.1
11982.1
11712.2
11432.6
11144
10847.4
10543.8
10234
9918.91
9599.36
9276.16
8950.1
8621.88
8292.18
7961.63
7630.79
7300.17
6970.22
6641.34
6313.85
5988.04
5664.1
5342.22
5022.48
4704.96
4389.65
4076.54
3765.56
3456.61
3149.56
2844.29
2540.62
2238.39
1937.43
1637.56
1338.6
1040.37
742.722
445.473
148.465
213.679
640.921
1067.81
1494.12
1919.61
2344.06
2767.21
3188.83
3608.69
4026.51
4442.05
4855.01
5265.1
5672
6075.38
6474.85
6870.03
7260.48
7645.73
8025.3
8398.64
8765.21
9124.39
9475.57
9818.09
10151.3
10474.4
10786.8
11087.8
11376.5
11652.4
11914.6
12162.4
12395.2
12612.3
12813
12996.9
13163.2
13311.5
13441.4
13552.5
13644.4
13716.8
13769.7
13802.7
13816
13809.5
13783.4
13737.7
13672.8
13589.1
13486.8
13366.5
13228.7
13074
12903.1
12716.7
12515.4
12300.3
12071.9
11831.3
11579.3
11316.8
11044.7
10764
10475.5
10180.1
9878.74
9572.26
9261.49
8947.22
8630.21
8311.18
7990.79
7669.66
7348.35
7027.38
6707.2
6388.2
6070.72
5755.03
5441.37
5129.9
4820.74
4513.96
4209.59
3907.59
3607.93
3310.5
3015.2
2721.88
2430.38
2140.53
1852.15
1565.05
1279.02
993.88
709.425
425.46
141.787
204.657
613.876
1022.81
1431.26
1839.03
2245.93
2651.76
3056.29
3459.31
3860.6
4259.89
4656.94
5051.44
5443.11
5831.59
6216.54
6597.55
6974.21
7346.05
7712.58
8073.28
8427.59
8774.92
9114.65
9446.14
9768.72
10081.7
10384.4
10676.1
10956
11223.5
11477.9
11718.4
11944.4
12155.3
12350.3
12528.9
12690.6
12834.9
12961.4
13069.5
13159.1
13229.8
13281.5
13314.1
13327.4
13321.6
13296.6
13252.7
13190.2
13109.3
13010.4
12894.1
12760.7
12610.9
12445.3
12264.7
12069.7
11861.1
11639.8
11406.5
11162.2
10907.7
10643.9
10371.6
10091.9
9805.46
9513.27
9216.14
8914.87
8610.26
8303.03
7993.9
7683.53
7372.52
7061.43
6750.76
6440.97
6132.46
5825.56
5520.55
5217.67
4917.08
4618.93
4323.28
4030.16
3739.57
3451.45
3165.73
2882.29
2600.99
2321.68
2044.18
1768.3
1493.83
1220.56
948.294
676.798
405.857
135.249
195.536
586.529
977.288
1367.65
1757.46
2146.55
2534.74
2921.84
3307.66
3691.99
4074.61
4455.25
4833.65
5209.52
5582.54
5952.34
6318.55
6680.75
7038.49
7391.28
7738.62
8079.95
8414.7
8742.26
9061.99
9373.24
9675.34
9967.61
10249.3
10519.8
10778.4
11024.3
11256.9
11475.6
11679.6
11868.4
12041.4
12198.1
12338
12460.7
12565.7
12652.7
12721.6
12772
12803.9
12817.3
12812.1
12788.4
12746.4
12686.4
12608.6
12513.4
12401.3
12272.7
12128.2
11968.4
11794.1
11605.8
11404.4
11190.6
10965.3
10729.3
10483.4
10228.5
9965.51
9695.22
9418.51
9136.22
8849.18
8558.16
8263.94
7967.23
7668.74
7369.1
7068.91
6768.72
6469.04
6170.29
5872.89
5577.16
5283.39
4991.81
4702.61
4415.91
4131.8
3850.31
3571.44
3295.15
3021.35
2749.96
2480.81
2213.77
1948.65
1685.25
1423.37
1162.78
903.264
644.587
386.511
128.797
186.271
558.751
931.042
1303.01
1674.53
2045.46
2415.63
2784.91
3153.1
3520.02
3885.45
4249.17
4610.91
4970.4
5327.33
5681.35
6032.09
6379.14
6722.08
7060.43
7393.68
7721.3
8042.72
8357.36
8664.6
8963.8
9254.3
9535.43
9806.52
10066.9
10315.8
10552.7
10776.8
10987.6
11184.3
11366.4
11533.3
11684.6
11819.7
11938.2
12039.8
12124.1
12190.9
12239.9
12271.1
12284.5
12280
12257.6
12217.7
12160.3
12085.8
11994.6
11887
11763.5
11624.7
11471.2
11303.6
11122.6
10928.9
10723.3
10506.5
10279.5
10042.9
9797.61
9544.52
9284.41
9018.13
8746.48
8470.27
8190.24
7907.16
7621.73
7334.6
7046.42
6757.77
6469.19
6181.15
5894.11
5608.45
5324.5
5042.55
4762.82
4485.51
4210.74
3938.6
3669.13
3402.33
3138.17
2876.58
2617.44
2360.63
2105.99
1853.34
1602.48
1353.21
1105.29
858.493
612.576
367.292
122.388
176.831
530.442
883.903
1237.11
1589.95
1942.3
2294.04
2645.03
2995.12
3344.11
3691.84
4038.07
4382.57
4725.07
5065.27
5402.84
5737.44
6068.65
6396.08
6719.24
7037.67
7350.84
7658.2
7959.18
8253.19
8539.59
8817.77
9087.06
9346.82
9596.37
9835.07
10062.3
10277.3
10479.5
10668.4
10843.3
11003.7
11149.2
11279.1
11393.2
11491.1
11572.4
11636.9
11684.4
11714.9
11728.2
11724.3
11703.4
11665.6
11611.1
11540.1
11453
11350.3
11232.3
11099.6
10952.8
10792.4
10619.2
10433.8
10236.9
10029.3
9811.84
9585.22
9350.26
9107.78
8858.58
8603.45
8343.18
8078.54
7810.26
7539.06
7265.64
6990.62
6714.63
6438.23
6161.95
5886.26
5611.58
5338.3
5066.74
4797.19
4529.88
4264.97
4002.62
3742.91
3485.87
3231.53
2979.84
2730.74
2484.12
2239.86
1997.8
1757.77
1519.57
1282.98
1047.78
813.733
580.587
348.091
115.987
167.187
501.523
835.741
1169.76
1503.48
1836.82
2169.65
2501.87
2833.33
3163.88
3493.33
3821.5
4148.14
4473.02
4795.85
5116.31
5434.06
5748.74
6059.93
6367.19
6670.06
6968.04
7260.59
7547.17
7827.21
8100.09
8365.22
8621.97
8869.71
9107.79
9335.59
9552.48
9757.83
9951.04
10131.5
10298.8
10452.2
10591.4
10715.8
10825.1
10919
10997.1
11059.2
11105.1
11134.6
11147.9
11144.7
11125.3
11089.7
11038.2
10971
10888.4
10790.8
10678.6
10552.4
10412.7
10260
10095.1
9918.47
9730.91
9533.12
9325.85
9109.84
8885.87
8654.7
8417.11
8173.86
7925.7
7673.36
7417.57
7159
6898.32
6636.14
6373.07
6109.63
5846.35
5583.68
5322.03
5061.77
4803.23
4546.67
4292.32
4040.36
3790.92
3544.1
3299.93
3058.44
2819.58
2583.29
2349.48
2118.02
1888.77
1661.54
1436.15
1212.37
989.998
768.78
548.472
328.82
109.563
157.323
471.939
786.464
1100.83
1414.97
1728.81
2042.24
2355.18
2667.48
2979.02
3289.63
3599.13
3907.31
4213.93
4518.72
4821.4
5121.63
5419.06
5713.3
6003.94
6290.52
6572.57
6849.58
7121.03
7386.36
7645.01
7896.39
8139.9
8374.94
8600.89
8817.15
9023.12
9218.21
9401.83
9573.44
9732.5
9878.52
10011
10129.6
10233.8
10323.4
10398
10457.5
10501.6
10530.3
10543.4
10540.9
10523.1
10489.8
10441.5
10378.2
10300.3
10208.1
10102.2
9982.84
9850.65
9706.17
9549.98
9382.71
9205.03
9017.61
8821.17
8616.42
8404.09
8184.92
7959.64
7728.98
7493.64
7254.34
7011.76
6766.55
6519.34
6270.73
6021.28
5771.51
5521.92
5272.94
5024.97
4778.37
4533.45
4290.47
4049.65
3811.17
3575.15
3341.69
3110.83
2882.59
2656.93
2433.81
2213.11
1994.74
1778.53
1564.32
1351.93
1141.14
931.732
723.472
516.115
309.407
103.092
147.225
441.653
736.014
1030.26
1324.33
1618.16
1911.68
2204.8
2497.4
2789.37
3080.56
3370.79
3659.88
3947.61
4233.72
4517.94
4799.97
5079.46
5356.06
5629.35
5898.93
6164.33
6425.08
6680.68
6930.61
7174.31
7411.24
7640.83
7862.51
8075.69
8279.79
8474.25
8658.5
8831.99
8994.2
9144.62
9282.77
9408.22
9520.54
9619.38
9704.42
9775.39
9832.05
9874.23
9901.83
9914.79
9913.09
9896.81
9866.04
9820.97
9761.82
9688.89
9602.49
9503.03
9390.94
9266.7
9130.83
8983.9
8826.49
8659.23
8482.77
8297.77
8104.9
7904.87
7698.35
7486.06
7268.67
7046.87
6821.31
6592.65
6361.51
6128.48
5894.13
5659.01
5423.6
5188.37
4953.75
4720.11
4487.79
4257.09
4028.27
3801.54
3577.06
3354.96
3135.34
2918.23
2703.65
2491.58
2281.97
2074.71
1869.71
1666.82
1465.88
1266.7
1069.09
872.825
677.683
483.422
289.797
96.5564
136.889
410.65
684.364
957.995
1231.5
1504.82
1777.91
2050.67
2323.03
2594.87
2866.05
3136.43
3405.83
3674.03
3940.82
4205.94
4469.1
4729.98
4988.23
5243.5
5495.38
5743.44
5987.23
6226.28
6460.1
6688.18
6910
7125.01
7332.68
7532.46
7723.8
7906.17
8079.03
8241.87
8394.19
8535.51
8665.37
8783.37
8889.11
8982.25
9062.48
9129.54
9183.22
9223.36
9249.83
9262.59
9261.63
9246.99
9218.78
9177.17
9122.35
9054.59
8974.21
8881.58
8777.08
8661.18
8534.36
8397.15
8250.1
8093.8
7928.84
7755.85
7575.48
7388.36
7195.15
6996.49
6793.05
6585.45
6374.32
6160.27
5943.88
5725.72
5506.32
5286.2
5065.81
4845.6
4625.97
4407.28
4189.85
3973.97
3759.88
3547.77
3337.81
3130.13
2924.81
2721.89
2521.4
2323.3
2127.55
1934.07
1742.75
1553.45
1366.03
1180.3
996.082
813.161
631.319
450.328
269.95
89.9422
126.314
378.932
631.518
884.049
1136.49
1388.81
1640.94
1892.84
2144.41
2395.57
2646.18
2896.13
3145.23
3393.32
3640.17
3885.55
4129.19
4370.8
4610.07
4846.64
5080.15
5310.19
5536.36
5758.2
5975.26
6187.06
6393.11
6592.91
6785.96
6971.74
7149.74
7319.47
7480.41
7632.09
7774.05
7905.82
8026.99
8137.17
8235.99
8323.13
8398.29
8461.24
8511.77
8549.72
8574.99
8587.51
8587.28
8574.34
8548.78
8510.75
8460.44
8398.08
8323.98
8238.46
8141.9
8034.72
7917.36
7790.31
7654.1
7509.24
7356.32
7195.91
7028.59
6854.99
6675.69
6491.3
6302.44
6109.69
5913.64
5714.85
5513.88
5311.24
5107.45
4902.97
4698.24
4493.68
4289.66
4086.53
3884.57
3684.07
3485.24
3288.29
3093.36
2900.57
2710
2521.71
2335.7
2151.95
1970.43
1791.05
1613.71
1438.3
1264.66
1092.63
922.029
752.662
584.321
416.788
249.838
83.2403
115.507
346.515
577.506
808.464
1039.37
1270.19
1500.88
1731.4
1961.67
2191.61
2421.12
2650.07
2878.32
3105.7
3332.02
3557.06
3780.58
4002.31
4221.96
4439.21
4653.71
4865.11
5073.01
5277.01
5476.67
5671.57
5861.25
6045.25
6223.09
6394.3
6558.42
6714.97
6863.5
7003.54
7134.68
7256.49
7368.58
7470.58
7562.16
7643.02
7712.87
7771.5
7818.71
7854.36
7878.33
7890.57
7891.07
7879.87
7857.04
7822.72
7777.07
7720.33
7652.75
7574.63
7486.32
7388.2
7280.69
7164.23
7039.28
6906.36
6765.97
6618.65
6464.94
6305.41
6140.6
5971.07
5797.39
5620.11
5439.75
5256.85
5071.91
4885.42
4697.85
4509.63
4321.17
4132.85
3945.03
3758.01
3572.08
3387.5
3204.46
3023.16
2843.74
2666.3
2490.93
2317.67
2146.54
1977.52
1810.56
1645.61
1482.56
1321.31
1161.72
1003.63
846.885
691.29
536.656
382.779
229.447
76.4457
104.478
313.434
522.383
731.318
940.226
1149.09
1357.87
1566.53
1775.01
1983.24
2191.13
2398.57
2605.43
2811.56
3016.8
3220.94
3423.77
3625.03
3824.48
4021.81
4216.72
4408.87
4597.91
4783.47
4965.17
5142.59
5315.32
5482.95
5645.04
5801.16
5950.87
6093.76
6229.39
6357.35
6477.25
6588.7
6691.35
6784.84
6868.88
6943.19
7007.5
7061.61
7105.35
7138.56
7161.15
7173.07
7174.3
7164.87
7144.85
7114.35
7073.52
7022.57
6961.73
6891.28
6811.51
6722.79
6625.48
6519.98
6406.73
6286.17
6158.78
6025.04
5885.45
5740.5
5590.72
5436.61
5278.67
5117.41
4953.33
4786.89
4618.57
4448.81
4278.04
4106.64
3935.02
3763.5
3592.41
3422.05
3252.68
3084.51
2917.76
2752.58
2589.12
2427.47
2267.7
2109.87
1953.99
1800.04
1647.99
1497.78
1349.32
1202.5
1057.22
913.315
770.645
629.039
488.318
348.294
208.774
69.5574
93.2445
279.735
466.229
652.724
839.215
1025.69
1212.12
1398.48
1584.71
1770.77
1956.57
2142.02
2327
2511.39
2695.03
2877.75
3059.36
3239.63
3418.34
3595.21
3769.98
3942.34
4111.98
4278.56
4441.74
4601.15
4756.41
4907.15
5052.99
5193.52
5328.36
5457.13
5579.43
5694.89
5803.16
5903.89