/*--------------------------------*- C++ -*----------------------------------*\
  =========                 |
  \\      /  F ield         | OpenFOAM: The Open Source CFD Toolbox
   \\    /   O peration     | Website:  https://openfoam.org
    \\  /    A nd           | Version:  9
     \\/     M anipulation  |
\*---------------------------------------------------------------------------*/
FoamFile
{
    format      ascii;
    class       volScalarField;
    location    "0.45";
    object      gradTz;
}
// * * * * * * * * * * * * * * * * * * * * * * * * * * * * * * * * * * * * * //

dimensions      [0 -1 0 1 0 0 0];

internalField   nonuniform List<scalar> 
200000
(
-6343.12
-6865.24
-7018.4
-7073.98
-7098.21
-7110.34
-7117.04
-7120.98
-7123.41
-7124.93
-7125.88
-7126.46
-7126.8
-7126.96
-7127
-7126.96
-7126.85
-7126.7
-7126.52
-7126.31
-7126.08
-7125.85
-7125.61
-7125.36
-7125.12
-7124.87
-7124.63
-7124.4
-7124.17
-7123.95
-7123.74
-7123.54
-7123.35
-7123.17
-7123
-7122.85
-7122.71
-7122.58
-7122.47
-7122.37
-7122.29
-7122.22
-7122.17
-7122.13
-7122.11
-7122.1
-7122.11
-7122.14
-7122.18
-7122.24
-7122.31
-7122.39
-7122.49
-7122.6
-7122.73
-7122.87
-7123.02
-7123.18
-7123.35
-7123.53
-7123.73
-7123.93
-7124.14
-7124.35
-7124.57
-7124.8
-7125.04
-7125.27
-7125.51
-7125.76
-7126
-7126.24
-7126.49
-7126.73
-7126.97
-7127.2
-7127.43
-7127.65
-7127.86
-7128.05
-7128.23
-7128.38
-7128.5
-7128.59
-7128.62
-7128.58
-7128.46
-7128.2
-7127.77
-7127.09
-7126.03
-7124.4
-7121.87
-7117.81
-7111
-7098.75
-7074.41
-7018.71
-6865.42
-6343.18
-6865.24
-7868.8
-8222.62
-8366.37
-8433.04
-8467.53
-8486.9
-8498.43
-8505.54
-8510.02
-8512.83
-8514.55
-8515.54
-8516.02
-8516.14
-8516
-8515.68
-8515.22
-8514.66
-8514.04
-8513.36
-8512.65
-8511.93
-8511.19
-8510.46
-8509.73
-8509.01
-8508.3
-8507.62
-8506.96
-8506.33
-8505.72
-8505.15
-8504.62
-8504.12
-8503.66
-8503.23
-8502.85
-8502.52
-8502.22
-8501.97
-8501.77
-8501.62
-8501.5
-8501.44
-8501.42
-8501.45
-8501.53
-8501.65
-8501.82
-8502.03
-8502.29
-8502.58
-8502.92
-8503.3
-8503.71
-8504.16
-8504.65
-8505.17
-8505.71
-8506.29
-8506.89
-8507.52
-8508.16
-8508.83
-8509.52
-8510.21
-8510.92
-8511.64
-8512.37
-8513.1
-8513.84
-8514.57
-8515.29
-8516.01
-8516.71
-8517.39
-8518.05
-8518.68
-8519.26
-8519.79
-8520.25
-8520.62
-8520.87
-8520.97
-8520.87
-8520.5
-8519.75
-8518.47
-8516.45
-8513.33
-8508.53
-8501.09
-8489.23
-8469.51
-8434.67
-8367.64
-8223.54
-7869.35
-6865.42
-7018.4
-8222.62
-8686.15
-8888.32
-8986.98
-9039.78
-9070.08
-9088.36
-9099.74
-9106.94
-9111.47
-9114.26
-9115.85
-9116.61
-9116.78
-9116.53
-9115.98
-9115.21
-9114.28
-9113.23
-9112.1
-9110.92
-9109.71
-9108.48
-9107.26
-9106.04
-9104.84
-9103.67
-9102.53
-9101.43
-9100.37
-9099.37
-9098.42
-9097.52
-9096.69
-9095.92
-9095.22
-9094.58
-9094.02
-9093.53
-9093.12
-9092.78
-9092.52
-9092.34
-9092.23
-9092.2
-9092.25
-9092.38
-9092.58
-9092.86
-9093.21
-9093.64
-9094.13
-9094.69
-9095.32
-9096.01
-9096.76
-9097.57
-9098.43
-9099.35
-9100.31
-9101.31
-9102.35
-9103.43
-9104.54
-9105.68
-9106.85
-9108.03
-9109.23
-9110.44
-9111.66
-9112.88
-9114.1
-9115.31
-9116.5
-9117.67
-9118.81
-9119.91
-9120.95
-9121.93
-9122.81
-9123.59
-9124.21
-9124.64
-9124.82
-9124.67
-9124.07
-9122.85
-9120.79
-9117.51
-9112.46
-9104.72
-9092.79
-9073.95
-9043.07
-8989.69
-8890.43
-8687.66
-8223.54
-7018.71
-7073.98
-8366.37
-8888.32
-9126.85
-9247.91
-9314.64
-9353.76
-9377.71
-9392.78
-9402.37
-9408.43
-9412.15
-9414.26
-9415.25
-9415.44
-9415.06
-9414.27
-9413.17
-9411.85
-9410.38
-9408.79
-9407.14
-9405.44
-9403.72
-9402
-9400.29
-9398.61
-9396.97
-9395.37
-9393.83
-9392.35
-9390.95
-9389.61
-9388.36
-9387.2
-9386.12
-9385.14
-9384.25
-9383.46
-9382.78
-9382.2
-9381.73
-9381.36
-9381.1
-9380.95
-9380.91
-9380.98
-9381.16
-9381.45
-9381.83
-9382.33
-9382.92
-9383.61
-9384.4
-9385.28
-9386.25
-9387.3
-9388.43
-9389.64
-9390.92
-9392.26
-9393.66
-9395.13
-9396.64
-9398.19
-9399.79
-9401.42
-9403.08
-9404.76
-9406.45
-9408.16
-9409.87
-9411.57
-9413.27
-9414.94
-9416.58
-9418.17
-9419.71
-9421.18
-9422.55
-9423.79
-9424.88
-9425.77
-9426.39
-9426.66
-9426.48
-9425.69
-9424.07
-9421.29
-9416.88
-9410.09
-9399.76
-9383.92
-9359.18
-9319.25
-9251.71
-9129.82
-8890.44
-8367.65
-7074.41
-7098.21
-8433.04
-8986.98
-9247.91
-9384.14
-9461.03
-9506.95
-9535.45
-9553.56
-9565.15
-9572.5
-9577
-9579.54
-9580.69
-9580.86
-9580.32
-9579.26
-9577.82
-9576.1
-9574.19
-9572.15
-9570.01
-9567.82
-9565.61
-9563.39
-9561.19
-9559.03
-9556.92
-9554.87
-9552.89
-9550.99
-9549.18
-9547.46
-9545.85
-9544.35
-9542.97
-9541.7
-9540.56
-9539.55
-9538.67
-9537.93
-9537.32
-9536.85
-9536.52
-9536.32
-9536.27
-9536.36
-9536.59
-9536.96
-9537.46
-9538.09
-9538.86
-9539.75
-9540.76
-9541.89
-9543.13
-9544.48
-9545.94
-9547.49
-9549.13
-9550.86
-9552.67
-9554.55
-9556.49
-9558.49
-9560.54
-9562.64
-9564.77
-9566.93
-9569.11
-9571.3
-9573.5
-9575.7
-9577.87
-9580.02
-9582.13
-9584.19
-9586.17
-9588.06
-9589.83
-9591.44
-9592.85
-9594.01
-9594.84
-9595.23
-9595.05
-9594.11
-9592.14
-9588.75
-9583.36
-9575.08
-9562.53
-9543.43
-9513.92
-9466.96
-9389.01
-9251.72
-8989.71
-8434.69
-7098.75
-7110.34
-8467.53
-9039.78
-9314.64
-9461.03
-9545.16
-9596.16
-9628.19
-9648.7
-9661.9
-9670.29
-9675.41
-9678.26
-9679.51
-9679.6
-9678.86
-9677.51
-9675.71
-9673.59
-9671.23
-9668.72
-9666.09
-9663.41
-9660.7
-9657.98
-9655.29
-9652.65
-9650.07
-9647.56
-9645.13
-9642.81
-9640.6
-9638.51
-9636.54
-9634.7
-9633.01
-9631.47
-9630.07
-9628.84
-9627.76
-9626.85
-9626.1
-9625.53
-9625.12
-9624.89
-9624.83
-9624.93
-9625.21
-9625.66
-9626.27
-9627.05
-9627.98
-9629.07
-9630.3
-9631.69
-9633.21
-9634.86
-9636.64
-9638.53
-9640.54
-9642.65
-9644.86
-9647.16
-9649.53
-9651.98
-9654.48
-9657.04
-9659.65
-9662.29
-9664.96
-9667.64
-9670.33
-9673.01
-9675.67
-9678.3
-9680.89
-9683.4
-9685.83
-9688.15
-9690.32
-9692.31
-9694.05
-9695.49
-9696.54
-9697.08
-9696.94
-9695.91
-9693.66
-9689.77
-9683.55
-9674.03
-9659.66
-9637.94
-9604.67
-9552.41
-9466.99
-9319.29
-9043.11
-8469.54
-7111.01
-7117.04
-8486.9
-9070.08
-9353.76
-9506.95
-9596.16
-9650.87
-9685.54
-9707.89
-9722.33
-9731.51
-9737.09
-9740.14
-9741.4
-9741.37
-9740.38
-9738.71
-9736.54
-9733.99
-9731.18
-9728.19
-9725.08
-9721.89
-9718.68
-9715.47
-9712.29
-9709.16
-9706.1
-9703.13
-9700.27
-9697.52
-9694.91
-9692.43
-9690.11
-9687.94
-9685.94
-9684.11
-9682.47
-9681
-9679.73
-9678.65
-9677.77
-9677.09
-9676.61
-9676.34
-9676.26
-9676.39
-9676.72
-9677.25
-9677.97
-9678.88
-9679.99
-9681.27
-9682.73
-9684.37
-9686.16
-9688.12
-9690.22
-9692.46
-9694.83
-9697.33
-9699.93
-9702.65
-9705.45
-9708.34
-9711.31
-9714.33
-9717.41
-9720.54
-9723.69
-9726.86
-9730.04
-9733.21
-9736.36
-9739.47
-9742.52
-9745.51
-9748.39
-9751.13
-9753.71
-9756.08
-9758.17
-9759.91
-9761.2
-9761.91
-9761.85
-9760.77
-9758.34
-9754.05
-9747.18
-9736.67
-9720.84
-9697.05
-9660.92
-9604.72
-9513.99
-9359.26
-9074.02
-8489.27
-7117.83
-7120.98
-8498.43
-9088.36
-9377.71
-9535.45
-9628.19
-9685.54
-9722.13
-9745.84
-9761.19
-9770.94
-9776.81
-9779.96
-9781.15
-9780.93
-9779.67
-9777.65
-9775.08
-9772.09
-9768.82
-9765.34
-9761.73
-9758.05
-9754.33
-9750.62
-9746.94
-9743.33
-9739.8
-9736.37
-9733.07
-9729.9
-9726.88
-9724.02
-9721.34
-9718.83
-9716.53
-9714.42
-9712.52
-9710.83
-9709.36
-9708.12
-9707.1
-9706.31
-9705.76
-9705.44
-9705.35
-9705.5
-9705.88
-9706.49
-9707.32
-9708.38
-9709.65
-9711.13
-9712.82
-9714.7
-9716.77
-9719.03
-9721.45
-9724.04
-9726.77
-9729.65
-9732.66
-9735.79
-9739.03
-9742.36
-9745.78
-9749.28
-9752.83
-9756.43
-9760.07
-9763.73
-9767.4
-9771.06
-9774.69
-9778.29
-9781.82
-9785.27
-9788.6
-9791.78
-9794.78
-9797.53
-9799.98
-9802.04
-9803.59
-9804.49
-9804.55
-9803.49
-9800.94
-9796.37
-9789.01
-9777.72
-9760.77
-9735.42
-9697.13
-9638.06
-9543.57
-9384.05
-9092.9
-8501.16
-7121.89
-7123.41
-8505.54
-9099.74
-9392.78
-9553.56
-9648.7
-9707.89
-9745.84
-9770.51
-9786.48
-9796.59
-9802.61
-9805.75
-9806.81
-9806.34
-9804.77
-9802.38
-9799.38
-9795.94
-9792.19
-9788.22
-9784.11
-9779.91
-9775.69
-9771.47
-9767.3
-9763.2
-9759.2
-9755.31
-9751.57
-9747.97
-9744.55
-9741.31
-9738.27
-9735.43
-9732.82
-9730.43
-9728.27
-9726.36
-9724.69
-9723.28
-9722.13
-9721.24
-9720.61
-9720.25
-9720.15
-9720.32
-9720.75
-9721.43
-9722.38
-9723.57
-9725.01
-9726.69
-9728.6
-9730.74
-9733.09
-9735.64
-9738.39
-9741.32
-9744.42
-9747.68
-9751.09
-9754.64
-9758.31
-9762.09
-9765.96
-9769.92
-9773.95
-9778.03
-9782.15
-9786.3
-9790.46
-9794.61
-9798.73
-9802.81
-9806.82
-9810.74
-9814.52
-9818.15
-9821.56
-9824.72
-9827.53
-9829.92
-9831.75
-9832.89
-9833.1
-9832.11
-9829.52
-9824.77
-9817.06
-9805.21
-9787.42
-9760.89
-9721.03
-9659.88
-9562.76
-9399.96
-9104.89
-8508.64
-7124.44
-7124.93
-8510.02
-9106.94
-9402.37
-9565.15
-9661.9
-9722.33
-9761.19
-9786.48
-9802.84
-9813.13
-9819.19
-9822.22
-9823.07
-9822.32
-9820.39
-9817.59
-9814.16
-9810.25
-9806.01
-9801.54
-9796.92
-9792.21
-9787.48
-9782.76
-9778.09
-9773.5
-9769.02
-9764.68
-9760.49
-9756.47
-9752.65
-9749.03
-9745.62
-9742.46
-9739.53
-9736.86
-9734.45
-9732.31
-9730.45
-9728.87
-9727.58
-9726.59
-9725.88
-9725.48
-9725.37
-9725.55
-9726.03
-9726.8
-9727.85
-9729.19
-9730.8
-9732.67
-9734.81
-9737.19
-9739.82
-9742.67
-9745.74
-9749.01
-9752.48
-9756.12
-9759.93
-9763.9
-9768
-9772.22
-9776.55
-9780.97
-9785.47
-9790.04
-9794.65
-9799.28
-9803.93
-9808.57
-9813.18
-9817.75
-9822.24
-9826.62
-9830.87
-9834.94
-9838.78
-9842.34
-9845.53
-9848.26
-9850.4
-9851.79
-9852.2
-9851.33
-9848.77
-9843.93
-9836
-9823.75
-9805.37
-9778
-9737
-9674.39
-9575.42
-9410.39
-9112.69
-8513.47
-7126.08
-7125.88
-8512.83
-9111.47
-9408.43
-9572.5
-9670.29
-9731.51
-9770.94
-9796.59
-9813.13
-9823.46
-9829.43
-9832.27
-9832.85
-9831.77
-9829.46
-9826.23
-9822.33
-9817.95
-9813.21
-9808.23
-9803.09
-9797.87
-9792.63
-9787.4
-9782.23
-9777.15
-9772.2
-9767.4
-9762.76
-9758.32
-9754.09
-9750.09
-9746.33
-9742.83
-9739.6
-9736.64
-9733.98
-9731.62
-9729.56
-9727.81
-9726.39
-9725.29
-9724.51
-9724.06
-9723.94
-9724.14
-9724.67
-9725.52
-9726.68
-9728.16
-9729.93
-9732.01
-9734.36
-9737
-9739.9
-9743.05
-9746.44
-9750.05
-9753.88
-9757.91
-9762.12
-9766.5
-9771.03
-9775.7
-9780.48
-9785.37
-9790.34
-9795.39
-9800.48
-9805.61
-9810.74
-9815.88
-9820.98
-9826.03
-9830.99
-9835.85
-9840.56
-9845.08
-9849.35
-9853.32
-9856.91
-9860
-9862.46
-9864.13
-9864.77
-9864.07
-9861.59
-9856.76
-9848.71
-9836.23
-9817.44
-9789.5
-9747.71
-9684.08
-9583.84
-9417.29
-9117.82
-8516.64
-7127.15
-7126.46
-8514.55
-9114.26
-9412.15
-9577
-9675.41
-9737.09
-9776.81
-9802.61
-9819.19
-9829.43
-9835.22
-9837.8
-9838.06
-9836.6
-9833.87
-9830.19
-9825.82
-9820.94
-9815.69
-9810.19
-9804.54
-9798.8
-9793.04
-9787.3
-9781.63
-9776.07
-9770.64
-9765.38
-9760.3
-9755.44
-9750.81
-9746.42
-9742.31
-9738.47
-9734.93
-9731.69
-9728.78
-9726.19
-9723.93
-9722.02
-9720.46
-9719.25
-9718.4
-9717.91
-9717.77
-9718
-9718.57
-9719.5
-9720.77
-9722.39
-9724.33
-9726.6
-9729.18
-9732.06
-9735.24
-9738.68
-9742.4
-9746.36
-9750.55
-9754.96
-9759.57
-9764.36
-9769.32
-9774.43
-9779.67
-9785.02
-9790.47
-9795.99
-9801.57
-9807.18
-9812.81
-9818.43
-9824.02
-9829.55
-9835
-9840.33
-9845.51
-9850.48
-9855.19
-9859.58
-9863.56
-9867.02
-9869.83
-9871.8
-9872.7
-9872.21
-9869.88
-9865.12
-9857.06
-9844.45
-9825.43
-9797.12
-9754.81
-9690.5
-9589.41
-9421.84
-9121.2
-8518.73
-7127.86
-7126.8
-8515.54
-9115.85
-9414.26
-9579.54
-9678.26
-9740.14
-9779.96
-9805.75
-9822.22
-9832.27
-9837.8
-9840.07
-9839.96
-9838.09
-9834.91
-9830.76
-9825.9
-9820.51
-9814.75
-9808.73
-9802.55
-9796.29
-9790.01
-9783.76
-9777.6
-9771.54
-9765.64
-9759.92
-9754.4
-9749.12
-9744.08
-9739.32
-9734.84
-9730.67
-9726.83
-9723.31
-9720.14
-9717.33
-9714.88
-9712.8
-9711.1
-9709.79
-9708.86
-9708.32
-9708.17
-9708.41
-9709.04
-9710.05
-9711.43
-9713.18
-9715.29
-9717.75
-9720.56
-9723.69
-9727.13
-9730.88
-9734.91
-9739.21
-9743.77
-9748.56
-9753.56
-9758.77
-9764.16
-9769.71
-9775.4
-9781.22
-9787.13
-9793.13
-9799.19
-9805.29
-9811.41
-9817.52
-9823.6
-9829.62
-9835.55
-9841.36
-9847
-9852.42
-9857.58
-9862.4
-9866.78
-9870.63
-9873.8
-9876.09
-9877.28
-9877.03
-9874.9
-9870.27
-9862.27
-9849.65
-9830.52
-9802
-9759.38
-9694.64
-9593.01
-9424.78
-9123.39
-8520.07
-7128.31
-7126.96
-8516.02
-9116.61
-9415.25
-9580.69
-9679.51
-9741.4
-9781.15
-9806.81
-9823.07
-9832.85
-9838.06
-9839.96
-9839.44
-9837.12
-9833.48
-9828.84
-9823.47
-9817.57
-9811.28
-9804.74
-9798.03
-9791.25
-9784.45
-9777.69
-9771.02
-9764.48
-9758.11
-9751.93
-9745.97
-9740.26
-9734.83
-9729.68
-9724.85
-9720.35
-9716.2
-9712.4
-9708.98
-9705.94
-9703.29
-9701.05
-9699.22
-9697.8
-9696.79
-9696.21
-9696.05
-9696.31
-9696.98
-9698.07
-9699.56
-9701.44
-9703.72
-9706.38
-9709.4
-9712.78
-9716.5
-9720.54
-9724.89
-9729.53
-9734.45
-9739.62
-9745.02
-9750.64
-9756.46
-9762.45
-9768.59
-9774.86
-9781.25
-9787.73
-9794.27
-9800.85
-9807.46
-9814.06
-9820.63
-9827.13
-9833.54
-9839.82
-9845.93
-9851.82
-9857.42
-9862.67
-9867.47
-9871.71
-9875.25
-9877.89
-9879.39
-9879.41
-9877.51
-9873.07
-9865.2
-9852.65
-9833.52
-9804.92
-9762.15
-9697.18
-9595.22
-9426.6
-9124.74
-8520.91
-7128.59
-7127
-8516.14
-9116.78
-9415.44
-9580.86
-9679.6
-9741.37
-9780.93
-9806.34
-9822.32
-9831.77
-9836.6
-9838.09
-9837.12
-9834.34
-9830.21
-9825.07
-9819.18
-9812.75
-9805.94
-9798.87
-9791.64
-9784.33
-9777.01
-9769.74
-9762.57
-9755.55
-9748.7
-9742.06
-9735.66
-9729.53
-9723.7
-9718.18
-9712.99
-9708.16
-9703.7
-9699.62
-9695.95
-9692.68
-9689.84
-9687.44
-9685.47
-9683.94
-9682.86
-9682.24
-9682.06
-9682.33
-9683.06
-9684.22
-9685.82
-9687.84
-9690.28
-9693.13
-9696.38
-9700
-9703.99
-9708.33
-9712.99
-9717.98
-9723.25
-9728.79
-9734.59
-9740.62
-9746.86
-9753.29
-9759.88
-9766.62
-9773.47
-9780.42
-9787.44
-9794.51
-9801.6
-9808.69
-9815.74
-9822.73
-9829.63
-9836.38
-9842.96
-9849.3
-9855.36
-9861.04
-9866.26
-9870.91
-9874.83
-9877.83
-9879.66
-9879.99
-9878.35
-9874.14
-9866.45
-9854.03
-9834.99
-9806.42
-9763.62
-9698.55
-9596.44
-9427.61
-9125.5
-8521.38
-7128.75
-7126.96
-8516
-9116.53
-9415.06
-9580.32
-9678.86
-9740.38
-9779.67
-9804.77
-9820.39
-9829.46
-9833.87
-9834.91
-9833.48
-9830.21
-9825.57
-9819.91
-9813.5
-9806.55
-9799.2
-9791.6
-9783.84
-9776
-9768.17
-9760.39
-9752.72
-9745.21
-9737.89
-9730.8
-9723.96
-9717.41
-9711.18
-9705.28
-9699.74
-9694.58
-9689.82
-9685.46
-9681.54
-9678.05
-9675.02
-9672.44
-9670.34
-9668.71
-9667.55
-9666.88
-9666.69
-9666.98
-9667.75
-9668.99
-9670.69
-9672.86
-9675.46
-9678.5
-9681.97
-9685.83
-9690.09
-9694.72
-9699.7
-9705.02
-9710.65
-9716.57
-9722.76
-9729.2
-9735.86
-9742.73
-9749.77
-9756.96
-9764.28
-9771.7
-9779.2
-9786.75
-9794.32
-9801.9
-9809.43
-9816.91
-9824.28
-9831.51
-9838.55
-9845.36
-9851.86
-9857.99
-9863.64
-9868.69
-9873
-9876.38
-9878.56
-9879.21
-9877.87
-9873.91
-9866.45
-9854.23
-9835.33
-9806.87
-9764.12
-9699.07
-9596.94
-9428.04
-9125.83
-8521.59
-7128.82
-7126.85
-8515.68
-9115.98
-9414.27
-9579.26
-9677.51
-9738.71
-9777.65
-9802.38
-9817.59
-9826.23
-9830.19
-9830.76
-9828.84
-9825.07
-9819.91
-9813.73
-9806.8
-9799.3
-9791.42
-9783.29
-9774.99
-9766.64
-9758.28
-9750
-9741.84
-9733.84
-9726.05
-9718.5
-9711.24
-9704.27
-9697.64
-9691.37
-9685.48
-9679.99
-9674.92
-9670.29
-9666.12
-9662.41
-9659.18
-9656.44
-9654.2
-9652.46
-9651.24
-9650.52
-9650.32
-9650.62
-9651.44
-9652.75
-9654.56
-9656.86
-9659.63
-9662.86
-9666.54
-9670.65
-9675.17
-9680.09
-9685.39
-9691.04
-9697.02
-9703.32
-9709.9
-9716.74
-9723.83
-9731.12
-9738.6
-9746.25
-9754.03
-9761.92
-9769.89
-9777.92
-9785.98
-9794.03
-9802.05
-9810.01
-9817.86
-9825.56
-9833.07
-9840.34
-9847.29
-9853.86
-9859.94
-9865.41
-9870.12
-9873.88
-9876.42
-9877.41
-9876.39
-9872.72
-9865.53
-9853.53
-9834.84
-9806.54
-9763.93
-9698.97
-9596.91
-9428.05
-9125.86
-8521.61
-7128.83
-7126.7
-8515.22
-9115.21
-9413.17
-9577.82
-9675.71
-9736.54
-9775.08
-9799.38
-9814.16
-9822.33
-9825.82
-9825.9
-9823.47
-9819.18
-9813.5
-9806.8
-9799.32
-9791.3
-9782.88
-9774.21
-9765.39
-9756.51
-9747.64
-9738.85
-9730.2
-9721.72
-9713.46
-9705.47
-9697.77
-9690.39
-9683.37
-9676.72
-9670.48
-9664.67
-9659.3
-9654.4
-9649.97
-9646.04
-9642.62
-9639.72
-9637.34
-9635.5
-9634.2
-9633.44
-9633.22
-9633.54
-9634.4
-9635.79
-9637.71
-9640.14
-9643.07
-9646.49
-9650.38
-9654.73
-9659.52
-9664.73
-9670.33
-9676.32
-9682.65
-9689.32
-9696.28
-9703.53
-9711.03
-9718.75
-9726.67
-9734.77
-9743.01
-9751.36
-9759.81
-9768.31
-9776.85
-9785.38
-9793.88
-9802.31
-9810.63
-9818.81
-9826.79
-9834.51
-9841.92
-9848.92
-9855.43
-9861.32
-9866.44
-9870.59
-9873.51
-9874.85
-9874.16
-9870.81
-9863.9
-9852.17
-9833.72
-9805.63
-9763.21
-9698.41
-9596.49
-9427.75
-9125.66
-8521.5
-7128.8
-7126.52
-8514.66
-9114.28
-9411.85
-9576.1
-9673.59
-9733.99
-9772.09
-9795.94
-9810.25
-9817.95
-9820.94
-9820.51
-9817.57
-9812.75
-9806.55
-9799.3
-9791.3
-9782.73
-9773.78
-9764.58
-9755.23
-9745.83
-9736.45
-9727.17
-9718.02
-9709.07
-9700.35
-9691.91
-9683.78
-9675.99
-9668.58
-9661.57
-9654.98
-9648.84
-9643.18
-9638
-9633.33
-9629.18
-9625.57
-9622.5
-9620
-9618.05
-9616.67
-9615.87
-9615.63
-9615.97
-9616.87
-9618.34
-9620.36
-9622.91
-9626
-9629.61
-9633.72
-9638.3
-9643.36
-9648.85
-9654.76
-9661.07
-9667.76
-9674.79
-9682.14
-9689.78
-9697.69
-9705.84
-9714.2
-9722.74
-9731.43
-9740.25
-9749.16
-9758.13
-9767.14
-9776.15
-9785.12
-9794.03
-9802.83
-9811.47
-9819.91
-9828.09
-9835.95
-9843.39
-9850.33
-9856.65
-9862.17
-9866.71
-9870.01
-9871.72
-9871.38
-9868.35
-9861.76
-9850.32
-9832.13
-9804.29
-9762.1
-9697.52
-9595.78
-9427.22
-9125.29
-8521.28
-7128.72
-7126.31
-8514.04
-9113.23
-9410.38
-9574.19
-9671.23
-9731.18
-9768.82
-9792.19
-9806.01
-9813.21
-9815.69
-9814.75
-9811.28
-9805.94
-9799.2
-9791.42
-9782.88
-9773.78
-9764.3
-9754.57
-9744.7
-9734.78
-9724.9
-9715.11
-9705.48
-9696.06
-9686.88
-9678
-9669.45
-9661.25
-9653.46
-9646.08
-9639.15
-9632.69
-9626.73
-9621.28
-9616.37
-9612.01
-9608.2
-9604.98
-9602.34
-9600.29
-9598.84
-9597.99
-9597.74
-9598.09
-9599.04
-9600.57
-9602.69
-9605.38
-9608.63
-9612.42
-9616.73
-9621.55
-9626.86
-9632.64
-9638.86
-9645.49
-9652.52
-9659.91
-9667.64
-9675.68
-9683.99
-9692.56
-9701.35
-9710.33
-9719.48
-9728.75
-9738.12
-9747.56
-9757.04
-9766.51
-9775.96
-9785.33
-9794.6
-9803.7
-9812.6
-9821.24
-9829.54
-9837.43
-9844.8
-9851.53
-9857.47
-9862.41
-9866.09
-9868.17
-9868.18
-9865.5
-9859.23
-9848.1
-9830.21
-9802.64
-9760.71
-9696.37
-9594.87
-9426.52
-9124.8
-8520.99
-7128.63
-7126.08
-8513.36
-9112.1
-9408.79
-9572.15
-9668.72
-9728.19
-9765.34
-9788.22
-9801.54
-9808.23
-9810.19
-9808.73
-9804.74
-9798.87
-9791.6
-9783.29
-9774.21
-9764.58
-9754.57
-9744.31
-9733.93
-9723.5
-9713.12
-9702.84
-9692.73
-9682.84
-9673.21
-9663.89
-9654.92
-9646.33
-9638.15
-9630.41
-9623.14
-9616.37
-9610.12
-9604.4
-9599.25
-9594.67
-9590.68
-9587.29
-9584.52
-9582.37
-9580.84
-9579.95
-9579.68
-9580.05
-9581.04
-9582.65
-9584.86
-9587.68
-9591.08
-9595.05
-9599.57
-9604.63
-9610.19
-9616.25
-9622.76
-9629.72
-9637.08
-9644.83
-9652.93
-9661.36
-9670.08
-9679.06
-9688.28
-9697.7
-9707.28
-9717
-9726.83
-9736.73
-9746.67
-9756.61
-9766.52
-9776.36
-9786.08
-9795.65
-9805
-9814.09
-9822.83
-9831.15
-9838.95
-9846.11
-9852.45
-9857.79
-9861.86
-9864.32
-9864.69
-9862.36
-9856.43
-9845.62
-9828.03
-9800.77
-9759.11
-9695.04
-9593.8
-9425.7
-9124.22
-8520.64
-7128.51
-7125.85
-8512.65
-9110.92
-9407.14
-9570.01
-9666.09
-9725.08
-9761.73
-9784.11
-9796.92
-9803.09
-9804.54
-9802.55
-9798.03
-9791.64
-9783.84
-9774.99
-9765.39
-9755.23
-9744.7
-9733.93
-9723.03
-9712.1
-9701.22
-9690.46
-9679.88
-9669.52
-9659.45
-9649.7
-9640.32
-9631.33
-9622.78
-9614.68
-9607.08
-9600
-9593.46
-9587.48
-9582.09
-9577.3
-9573.12
-9569.58
-9566.67
-9564.42
-9562.82
-9561.88
-9561.6
-9561.98
-9563.01
-9564.69
-9567.01
-9569.95
-9573.5
-9577.65
-9582.37
-9587.66
-9593.47
-9599.8
-9606.61
-9613.88
-9621.58
-9629.68
-9638.15
-9646.96
-9656.07
-9665.46
-9675.1
-9684.94
-9694.96
-9705.13
-9715.41
-9725.76
-9736.15
-9746.55
-9756.92
-9767.21
-9777.39
-9787.41
-9797.21
-9806.74
-9815.93
-9824.68
-9832.9
-9840.47
-9847.23
-9852.96
-9857.42
-9860.25
-9861
-9859.02
-9853.43
-9842.95
-9825.68
-9798.72
-9757.37
-9693.59
-9592.62
-9424.79
-9123.57
-8520.26
-7128.39
-7125.61
-8511.93
-9109.71
-9405.44
-9567.82
-9663.41
-9721.89
-9758.05
-9779.91
-9792.21
-9797.87
-9798.8
-9796.29
-9791.25
-9784.33
-9776
-9766.64
-9756.51
-9745.83
-9734.78
-9723.5
-9712.1
-9700.67
-9689.31
-9678.07
-9667.02
-9656.22
-9645.71
-9635.54
-9625.75
-9616.37
-9607.44
-9599
-9591.07
-9583.68
-9576.86
-9570.62
-9565
-9560
-9555.64
-9551.94
-9548.91
-9546.55
-9544.88
-9543.9
-9543.6
-9543.99
-9545.06
-9546.81
-9549.22
-9552.28
-9555.99
-9560.31
-9565.23
-9570.74
-9576.8
-9583.4
-9590.5
-9598.08
-9606.1
-9614.55
-9623.38
-9632.56
-9642.07
-9651.86
-9661.91
-9672.17
-9682.62
-9693.23
-9703.94
-9714.74
-9725.58
-9736.43
-9747.25
-9757.99
-9768.62
-9779.08
-9789.33
-9799.29
-9808.91
-9818.09
-9826.73
-9834.71
-9841.87
-9848
-9852.84
-9856.05
-9857.17
-9855.54
-9850.3
-9840.16
-9823.22
-9796.58
-9755.53
-9692.04
-9591.37
-9423.83
-9122.89
-8519.85
-7128.25
-7125.36
-8511.19
-9108.48
-9403.72
-9565.61
-9660.7
-9718.68
-9754.33
-9775.69
-9787.48
-9792.63
-9793.04
-9790.01
-9784.45
-9777.01
-9768.17
-9758.28
-9747.64
-9736.45
-9724.9
-9713.12
-9701.22
-9689.31
-9677.46
-9665.76
-9654.25
-9643.01
-9632.07
-9621.48
-9611.29
-9601.53
-9592.25
-9583.46
-9575.21
-9567.52
-9560.42
-9553.93
-9548.07
-9542.86
-9538.33
-9534.47
-9531.32
-9528.86
-9527.12
-9526.09
-9525.78
-9526.18
-9527.29
-9529.1
-9531.61
-9534.79
-9538.64
-9543.13
-9548.25
-9553.98
-9560.28
-9567.14
-9574.52
-9582.4
-9590.75
-9599.53
-9608.72
-9618.27
-9628.16
-9638.34
-9648.79
-9659.47
-9670.34
-9681.37
-9692.52
-9703.76
-9715.04
-9726.33
-9737.59
-9748.77
-9759.84
-9770.74
-9781.42
-9791.81
-9801.85
-9811.45
-9820.51
-9828.89
-9836.45
-9842.97
-9848.2
-9851.78
-9853.26
-9851.99
-9847.09
-9837.29
-9820.68
-9794.36
-9753.62
-9690.45
-9590.07
-9422.82
-9122.17
-8519.42
-7128.11
-7125.12
-8510.46
-9107.26
-9402
-9563.39
-9657.98
-9715.47
-9750.62
-9771.47
-9782.76
-9787.4
-9787.3
-9783.76
-9777.69
-9769.74
-9760.39
-9750
-9738.85
-9727.17
-9715.11
-9702.84
-9690.46
-9678.07
-9665.76
-9653.59
-9641.64
-9629.96
-9618.6
-9607.61
-9597.03
-9586.9
-9577.26
-9568.14
-9559.57
-9551.58
-9544.21
-9537.47
-9531.39
-9525.98
-9521.27
-9517.26
-9513.98
-9511.43
-9509.62
-9508.55
-9508.22
-9508.63
-9509.78
-9511.66
-9514.25
-9517.55
-9521.54
-9526.2
-9531.51
-9537.45
-9543.99
-9551.1
-9558.76
-9566.94
-9575.6
-9584.71
-9594.24
-9604.16
-9614.42
-9624.99
-9635.83
-9646.91
-9658.2
-9669.64
-9681.22
-9692.88
-9704.59
-9716.31
-9728
-9739.61
-9751.11
-9762.44
-9773.54
-9784.36
-9794.82
-9804.83
-9814.29
-9823.07
-9831.02
-9837.93
-9843.53
-9847.48
-9849.32
-9848.41
-9843.85
-9834.38
-9818.11
-9792.11
-9751.69
-9688.82
-9588.75
-9421.8
-9121.44
-8518.99
-7127.96
-7124.87
-8509.73
-9106.04
-9400.29
-9561.19
-9655.29
-9712.29
-9746.94
-9767.3
-9778.09
-9782.23
-9781.63
-9777.6
-9771.02
-9762.57
-9752.72
-9741.84
-9730.2
-9718.02
-9705.48
-9692.73
-9679.88
-9667.02
-9654.25
-9641.64
-9629.26
-9617.15
-9605.38
-9594
-9583.04
-9572.54
-9562.55
-9553.1
-9544.23
-9535.95
-9528.31
-9521.33
-9515.03
-9509.42
-9504.54
-9500.39
-9496.99
-9494.34
-9492.46
-9491.34
-9491
-9491.42
-9492.6
-9494.54
-9497.22
-9500.64
-9504.76
-9509.58
-9515.08
-9521.22
-9527.99
-9535.36
-9543.29
-9551.76
-9560.72
-9570.16
-9580.03
-9590.29
-9600.91
-9611.86
-9623.09
-9634.56
-9646.25
-9658.1
-9670.08
-9682.16
-9694.29
-9706.43
-9718.54
-9730.58
-9742.5
-9754.24
-9765.76
-9776.99
-9787.85
-9798.26
-9808.12
-9817.3
-9825.63
-9832.91
-9838.88
-9843.2
-9845.39
-9844.83
-9840.61
-9831.48
-9815.53
-9789.85
-9749.74
-9687.18
-9587.42
-9420.77
-9120.71
-8518.55
-7127.82
-7124.63
-8509.01
-9104.84
-9398.61
-9559.03
-9652.65
-9709.16
-9743.33
-9763.2
-9773.5
-9777.15
-9776.07
-9771.54
-9764.48
-9755.55
-9745.21
-9733.84
-9721.72
-9709.07
-9696.06
-9682.84
-9669.52
-9656.22
-9643.01
-9629.96
-9617.15
-9604.64
-9592.47
-9580.7
-9569.37
-9558.52
-9548.19
-9538.42
-9529.25
-9520.69
-9512.79
-9505.57
-9499.05
-9493.26
-9488.21
-9483.91
-9480.39
-9477.65
-9475.7
-9474.55
-9474.18
-9474.62
-9475.83
-9477.83
-9480.6
-9484.12
-9488.38
-9493.36
-9499.03
-9505.38
-9512.37
-9519.98
-9528.17
-9536.92
-9546.18
-9555.93
-9566.12
-9576.73
-9587.7
-9599.01
-9610.62
-9622.47
-9634.55
-9646.8
-9659.18
-9671.66
-9684.2
-9696.75
-9709.27
-9721.72
-9734.04
-9746.2
-9758.12
-9769.74
-9781
-9791.81
-9802.05
-9811.6
-9820.31
-9827.96
-9834.29
-9838.96
-9841.5
-9841.28
-9837.4
-9828.6
-9812.97
-9787.61
-9747.81
-9685.56
-9586.09
-9419.74
-9119.98
-8518.11
-7127.67
-7124.4
-8508.3
-9103.67
-9396.97
-9556.92
-9650.07
-9706.1
-9739.8
-9759.2
-9769.02
-9772.2
-9770.64
-9765.64
-9758.11
-9748.7
-9737.89
-9726.05
-9713.46
-9700.35
-9686.88
-9673.21
-9659.45
-9645.71
-9632.07
-9618.6
-9605.38
-9592.47
-9579.91
-9567.77
-9556.08
-9544.89
-9534.23
-9524.16
-9514.69
-9505.87
-9497.71
-9490.26
-9483.54
-9477.55
-9472.34
-9467.91
-9464.27
-9461.44
-9459.42
-9458.22
-9457.84
-9458.28
-9459.53
-9461.59
-9464.44
-9468.07
-9472.45
-9477.58
-9483.43
-9489.97
-9497.18
-9505.02
-9513.47
-9522.48
-9532.04
-9542.09
-9552.6
-9563.53
-9574.85
-9586.51
-9598.48
-9610.7
-9623.15
-9635.79
-9648.56
-9661.43
-9674.37
-9687.31
-9700.23
-9713.07
-9725.79
-9738.34
-9750.65
-9762.67
-9774.31
-9785.49
-9796.11
-9806.03
-9815.1
-9823.11
-9829.8
-9834.81
-9837.69
-9837.8
-9834.25
-9825.76
-9810.45
-9785.4
-9745.91
-9683.96
-9584.79
-9418.73
-9119.26
-8517.68
-7127.53
-7124.17
-8507.62
-9102.53
-9395.37
-9554.87
-9647.56
-9703.13
-9736.37
-9755.31
-9764.68
-9767.4
-9765.38
-9759.92
-9751.93
-9742.06
-9730.8
-9718.5
-9705.47
-9691.91
-9678
-9663.89
-9649.7
-9635.54
-9621.48
-9607.61
-9594
-9580.7
-9567.77
-9555.26
-9543.23
-9531.7
-9520.73
-9510.36
-9500.61
-9491.52
-9483.13
-9475.45
-9468.53
-9462.36
-9456.99
-9452.42
-9448.67
-9445.75
-9443.67
-9442.43
-9442.04
-9442.48
-9443.77
-9445.88
-9448.8
-9452.53
-9457.04
-9462.32
-9468.33
-9475.06
-9482.47
-9490.54
-9499.23
-9508.51
-9518.34
-9528.68
-9539.5
-9550.75
-9562.4
-9574.4
-9586.71
-9599.3
-9612.11
-9625.12
-9638.26
-9651.51
-9664.83
-9678.16
-9691.46
-9704.68
-9717.78
-9730.71
-9743.4
-9755.79
-9767.8
-9779.35
-9790.33
-9800.61
-9810.03
-9818.39
-9825.41
-9830.76
-9833.97
-9834.4
-9831.17
-9823
-9807.99
-9783.24
-9744.05
-9682.39
-9583.51
-9417.74
-9118.55
-8517.26
-7127.39
-7123.95
-8506.96
-9101.43
-9393.83
-9552.89
-9645.13
-9700.27
-9733.07
-9751.57
-9760.49
-9762.76
-9760.3
-9754.4
-9745.97
-9735.66
-9723.96
-9711.24
-9697.77
-9683.78
-9669.45
-9654.92
-9640.32
-9625.75
-9611.29
-9597.03
-9583.04
-9569.37
-9556.08
-9543.23
-9530.86
-9519.01
-9507.74
-9497.08
-9487.06
-9477.72
-9469.09
-9461.2
-9454.08
-9447.74
-9442.22
-9437.52
-9433.66
-9430.66
-9428.51
-9427.23
-9426.82
-9427.27
-9428.58
-9430.75
-9433.75
-9437.57
-9442.2
-9447.62
-9453.79
-9460.7
-9468.31
-9476.6
-9485.52
-9495.05
-9505.14
-9515.76
-9526.87
-9538.43
-9550.4
-9562.72
-9575.37
-9588.3
-9601.47
-9614.82
-9628.33
-9641.95
-9655.62
-9669.32
-9682.99
-9696.58
-9710.05
-9723.34
-9736.4
-9749.14
-9761.51
-9773.42
-9784.74
-9795.37
-9805.13
-9813.81
-9821.17
-9826.84
-9830.37
-9831.11
-9828.18
-9820.31
-9805.6
-9781.14
-9742.24
-9680.87
-9582.27
-9416.78
-9117.87
-8516.84
-7127.25
-7123.74
-8506.33
-9100.37
-9392.35
-9550.99
-9642.81
-9697.52
-9729.9
-9747.97
-9756.47
-9758.32
-9755.44
-9749.12
-9740.26
-9729.53
-9717.41
-9704.27
-9690.39
-9675.99
-9661.25
-9646.33
-9631.33
-9616.37
-9601.53
-9586.9
-9572.54
-9558.52
-9544.89
-9531.7
-9519.01
-9506.87
-9495.3
-9484.36
-9474.09
-9464.51
-9455.65
-9447.56
-9440.25
-9433.75
-9428.07
-9423.25
-9419.29
-9416.2
-9413.99
-9412.68
-9412.25
-9412.7
-9414.04
-9416.25
-9419.32
-9423.24
-9427.98
-9433.53
-9439.86
-9446.94
-9454.74
-9463.23
-9472.38
-9482.14
-9492.49
-9503.38
-9514.77
-9526.62
-9538.89
-9551.53
-9564.5
-9577.75
-9591.25
-9604.95
-9618.8
-9632.76
-9646.79
-9660.84
-9674.86
-9688.81
-9702.63
-9716.27
-9729.67
-9742.76
-9755.47
-9767.71
-9779.37
-9790.33
-9800.41
-9809.42
-9817.08
-9823.07
-9826.9
-9827.94
-9825.31
-9817.73
-9803.3
-9779.12
-9740.5
-9679.4
-9581.07
-9415.85
-9117.21
-8516.45
-7127.12
-7123.54
-8505.72
-9099.37
-9390.95
-9549.18
-9640.6
-9694.91
-9726.88
-9744.55
-9752.65
-9754.09
-9750.81
-9744.08
-9734.83
-9723.7
-9711.18
-9697.64
-9683.37
-9668.58
-9653.46
-9638.15
-9622.78
-9607.44
-9592.25
-9577.26
-9562.55
-9548.19
-9534.23
-9520.73
-9507.74
-9495.3
-9483.46
-9472.26
-9461.74
-9451.93
-9442.86
-9434.57
-9427.08
-9420.42
-9414.61
-9409.66
-9405.6
-9402.43
-9400.17
-9398.81
-9398.36
-9398.82
-9400.19
-9402.45
-9405.58
-9409.59
-9414.44
-9420.11
-9426.58
-9433.82
-9441.8
-9450.49
-9459.85
-9469.84
-9480.43
-9491.58
-9503.23
-9515.36
-9527.91
-9540.85
-9554.13
-9567.69
-9581.51
-9595.53
-9609.71
-9624
-9638.36
-9652.75
-9667.1
-9681.38
-9695.54
-9709.51
-9723.24
-9736.66
-9749.7
-9762.26
-9774.24
-9785.51
-9795.9
-9805.21
-9813.18
-9819.46
-9823.58
-9824.91
-9822.56
-9815.25
-9801.1
-9777.19
-9738.83
-9677.99
-9579.93
-9414.96
-9116.57
-8516.07
-7126.99
-7123.35
-8505.15
-9098.42
-9389.61
-9547.46
-9638.51
-9692.43
-9724.02
-9741.31
-9749.03
-9750.09
-9746.42
-9739.32
-9729.68
-9718.18
-9705.28
-9691.37
-9676.72
-9661.57
-9646.08
-9630.41
-9614.68
-9599
-9583.46
-9568.14
-9553.1
-9538.42
-9524.16
-9510.36
-9497.08
-9484.36
-9472.26
-9460.81
-9450.05
-9440.02
-9430.75
-9422.27
-9414.62
-9407.8
-9401.86
-9396.8
-9392.64
-9389.4
-9387.08
-9385.68
-9385.22
-9385.69
-9387.07
-9389.37
-9392.57
-9396.66
-9401.61
-9407.4
-9414
-9421.4
-9429.55
-9438.42
-9447.98
-9458.19
-9469.01
-9480.39
-9492.3
-9504.69
-9517.51
-9530.73
-9544.29
-9558.16
-9572.27
-9586.6
-9601.09
-9615.7
-9630.37
-9645.07
-9659.74
-9674.34
-9688.81
-9703.1
-9717.14
-9730.88
-9744.22
-9757.09
-9769.37
-9780.93
-9791.61
-9801.22
-9809.47
-9816.02
-9820.42
-9822.02
-9819.94
-9812.9
-9799
-9775.35
-9737.24
-9676.65
-9578.83
-9414.11
-9115.97
-8515.71
-7126.87
-7123.17
-8504.62
-9097.52
-9388.36
-9545.85
-9636.54
-9690.11
-9721.34
-9738.27