/*--------------------------------*- C++ -*----------------------------------*\
  =========                 |
  \\      /  F ield         | OpenFOAM: The Open Source CFD Toolbox
   \\    /   O peration     | Website:  https://openfoam.org
    \\  /    A nd           | Version:  9
     \\/     M anipulation  |
\*---------------------------------------------------------------------------*/
FoamFile
{
    format      ascii;
    class       volScalarField;
    location    "0.45";
    object      gradTx;
}
// * * * * * * * * * * * * * * * * * * * * * * * * * * * * * * * * * * * * * //

dimensions      [0 -1 0 1 0 0 0];

internalField   nonuniform List<scalar> 
200000
(
5125.56
2399.57
1475.88
1067.94
846.423
708.175
613.701
545.043
492.891
451.924
418.872
391.607
368.682
349.071
332.026
316.986
303.52
291.289
280.021
269.497
259.536
249.987
240.725
231.644
222.654
213.679
204.657
195.536
186.271
176.831
167.187
157.323
147.225
136.889
126.314
115.507
104.478
93.2445
81.8252
70.2443
58.5295
46.7111
34.8224
22.8986
10.9768
-0.904913
-12.7074
-24.3913
-35.9175
-47.2475
-58.3436
-69.1698
-79.6919
-89.8782
-99.6994
-109.129
-118.145
-126.727
-134.861
-142.535
-149.743
-156.481
-162.753
-168.566
-173.932
-178.868
-183.397
-187.547
-191.351
-194.847
-198.08
-201.099
-203.963
-206.733
-209.48
-212.283
-215.228
-218.414
-221.95
-225.961
-230.589
-236
-242.386
-249.979
-259.058
-269.971
-283.154
-299.173
-318.781
-343.004
-373.292
-411.773
-461.719
-528.448
-621.271
-758.145
-978.569
-1385.68
-2308.82
-5034.54
10342.4
6079.2
4125.35
3100.73
2495.17
2101.97
1828.02
1626.85
1473.1
1351.85
1253.76
1172.68
1104.41
1045.93
995.066
950.148
909.904
873.331
839.623
808.128
778.308
749.713
721.97
694.761
667.819
640.921
613.876
586.529
558.751
530.442
501.523
471.939
441.653
410.65
378.932
346.515
313.434
279.735
245.479
210.739
175.595
140.141
104.476
68.7046
32.939
-2.70631
-38.1142
-73.1666
-107.746
-141.737
-175.026
-207.505
-239.072
-269.632
-299.096
-327.386
-354.434
-380.181
-404.582
-427.604
-449.225
-469.439
-488.253
-505.689
-521.784
-536.589
-550.171
-562.615
-574.018
-584.498
-594.186
-603.233
-611.809
-620.102
-628.323
-636.707
-645.514
-655.037
-665.604
-677.586
-691.409
-707.564
-726.627
-749.285
-776.369
-808.905
-848.188
-895.887
-954.21
-1026.16
-1115.96
-1229.76
-1376.89
-1572.27
-1841.27
-2230.35
-2832.61
-3854.77
-5806.97
-10069.4
13604.3
8826
6356.47
4935.07
4041.06
3437.48
3006.67
2685.43
2437.42
2240.46
2080.33
1947.49
1835.31
1739.02
1655.11
1580.91
1514.34
1453.78
1397.92
1345.68
1296.19
1248.7
1202.6
1157.37
1112.56
1067.81
1022.81
977.288
931.042
883.903
835.741
786.464
736.014
684.364
631.518
577.506
522.383
466.229
409.144
351.249
292.682
233.595
174.154
114.537
54.9273
-4.48232
-63.4969
-121.92
-179.554
-236.208
-291.692
-345.827
-398.442
-449.377
-498.486
-545.638
-590.718
-633.63
-674.298
-712.665
-748.697
-782.382
-813.732
-842.784
-869.597
-894.259
-916.88
-937.599
-956.581
-974.018
-990.131
-1005.17
-1019.41
-1033.18
-1046.82
-1060.71
-1075.29
-1091.05
-1108.52
-1128.33
-1151.16
-1177.83
-1209.29
-1246.66
-1291.3
-1344.87
-1409.47
-1487.81
-1583.4
-1701.03
-1847.34
-2031.87
-2268.85
-2580.45
-3003.01
-3599.72
-4488.25
-5905.54
-8372.33
-13149.3
15943.7
10959.8
8225.76
6559.15
5461.5
4694.95
4134.56
3709.59
3377.53
3111.51
2893.83
2712.35
2558.5
2426.04
2310.32
2207.76
2115.6
2031.63
1954.07
1881.46
1812.59
1746.46
1682.21
1619.12
1556.6
1494.12
1431.26
1367.65
1303.01
1237.11
1169.76
1100.83
1030.26
957.995
884.049
808.464
731.318
652.724
572.823
491.784
409.8
327.086
243.873
160.411
76.9586
-6.21594
-88.8388
-170.634
-251.327
-330.647
-408.33
-484.124
-557.79
-629.104
-697.86
-763.875
-826.988
-887.065
-943.998
-997.707
-1048.14
-1095.29
-1139.17
-1179.82
-1217.34
-1251.84
-1283.47
-1312.44
-1338.96
-1363.32
-1385.8
-1406.77
-1426.62
-1445.77
-1464.72
-1484.01
-1504.23
-1526.05
-1550.23
-1577.61
-1609.16
-1645.99
-1689.39
-1740.89
-1802.36
-1876.03
-1964.73
-2072.06
-2202.69
-2362.88
-2561.22
-2809.84
-3126.46
-3537.93
-4086.77
-4843.71
-5933.67
-7594.53
-10324.7
-15306.7
17773
12693.1
9814.89
7995.58
6756.95
5868.03
5204.17
4692.49
4287.7
3960.34
3690.49
3464.22
3271.52
3104.98
2959.03
2829.36
2712.57
2605.95
2507.3
2414.81
2326.97
2242.53
2160.41
2079.7
1999.66
1919.61
1839.03
1757.46
1674.53
1589.95
1503.48
1414.97
1324.33
1231.5
1136.49
1039.37
940.226
839.215
736.516
632.347
526.958
420.624
313.646
206.343
99.0492
-7.89005
-114.122
-219.292
-323.046
-425.036
-524.922
-622.38
-717.1
-808.795
-897.202
-982.082
-1063.23
-1140.47
-1213.66
-1282.71
-1347.55
-1408.15
-1464.54
-1516.78
-1564.97
-1609.28
-1649.89
-1687.06
-1721.08
-1752.29
-1781.09
-1807.91
-1833.25
-1857.68
-1881.81
-1906.33
-1932
-1959.66
-1990.27
-2024.9
-2064.76
-2111.25
-2165.98
-2230.88
-2308.21
-2400.75
-2511.97
-2646.19
-2809.05
-3007.96
-3252.95
-3557.95
-3942.88
-4437.22
-5086.23
-5962.8
-7191.55
-9003.46
-11876.8
-16954.2
19285.3
14154.4
11192.1
9275.04
7938.55
6958.74
6213.76
5631.07
5164.64
4783.87
4467.6
4200.77
3972.38
3774.17
3599.85
3444.5
3304.22
3175.87
3056.88
2945.11
2838.81
2736.46
2636.81
2538.78
2441.45
2344.06
2245.93
2146.55
2045.46
1942.3
1836.82
1728.81
1618.16
1504.82
1388.81
1270.19
1149.09
1025.69
900.215
772.937
644.158
514.218
383.483
252.346
121.214
-9.48763
-139.329
-267.875
-394.692
-519.355
-641.447
-760.571
-876.35
-988.43
-1096.49
-1200.23
-1299.41
-1393.82
-1483.27
-1567.64
-1646.87
-1720.91
-1789.79
-1853.59
-1912.44
-1966.51
-2016.07
-2061.39
-2102.84
-2140.84
-2175.85
-2208.42
-2239.14
-2268.71
-2297.85
-2327.4
-2358.28
-2391.5
-2428.21
-2469.68
-2517.37
-2572.92
-2638.26
-2715.62
-2807.68
-2917.67
-3049.55
-3208.28
-3400.21
-3633.6
-3919.49
-4272.95
-4715.11
-5276.61
-6003.45
-6968.16
-8292.58
-10200.6
-13156.9
-18284.7
20583.1
15422.4
12407.9
10426.1
9020.74
7973.38
7165.23
6525.05
6007.11
5580.48
5223.47
4920.4
4659.63
4432.32
4231.64
4052.21
3889.71
3740.66
3602.15
3471.81
3347.6
3227.84
3111.06
2996.04
2881.72
2767.21
2651.76
2534.74
2415.63
2294.04
2169.65
2042.24
1911.68
1777.91
1640.94
1500.88
1357.87
1212.12
1063.91
913.545
761.398
607.869
453.392
298.43
143.469
-10.9913
-164.439
-316.359
-466.24
-613.576
-757.876
-898.669
-1035.51
-1167.97
-1295.68
-1418.29
-1535.5
-1647.06
-1752.76
-1852.46
-1946.05
-2033.52
-2114.87
-2190.2
-2259.66
-2323.47
-2381.91
-2435.32
-2484.13
-2528.82
-2569.95
-2608.14
-2644.11
-2678.64
-2712.6
-2746.95
-2782.76
-2821.21
-2863.63
-2911.48
-2966.43
-3030.37
-3105.48
-3194.3
-3299.83
-3425.67
-3576.2
-3756.88
-3974.58
-4238.15
-4559.27
-4953.62
-5442.91
-6058.04
-6844.77
-7874.29
-9265.41
-11236.5
-14243.9
-19401.1
21727
16547.4
13498.6
11472.5
10017.8
8919.8
8062.46
7375.98
6815.29
6349.66
5957.27
5622.14
5332.27
5078.46
4853.5
4651.66
4468.31
4299.66
4142.56
3994.39
3852.91
3716.26
3582.8
3451.17
3320.18
3188.83
3056.29
2921.84
2784.91
2645.03
2501.87
2355.18
2204.8
2050.67
1892.84
1731.4
1566.53
1398.48
1227.56
1054.15
878.668
701.573
523.373
344.603
165.824
-12.384
-189.43
-364.72
-537.66
-707.667
-874.173
-1036.63
-1194.53
-1347.38
-1494.74
-1636.21
-1771.44
-1900.15
-2022.09
-2137.09
-2245.04
-2345.9
-2439.69
-2526.52
-2606.55
-2680.04
-2747.3
-2808.74
-2864.82
-2916.11
-2963.23
-3006.92
-3047.96
-3087.27
-3125.82
-3164.71
-3205.15
-3248.47
-3296.16
-3349.87
-3411.47
-3483.05
-3567.04
-3666.22
-3783.87
-3923.9
-4091.03
-4291.06
-4531.24
-4820.82
-5171.83
-5600.23
-6127.87
-6785.47
-7618.09
-8695.48
-10133.8
-12147.6
-15188.2
-20363.6
22755
17562.8
14490.6
12433.2
10942.2
9805.95
8910.14
8186.37
7590.36
7091.75
6668.83
6305.54
5989.74
5711.97
5464.8
5242.24
5039.43
4852.33
4677.59
4512.39
4354.33
4201.34
4051.69
3903.86
3756.56
3608.69
3459.31
3307.66
3153.1
2995.12
2833.33
2667.48
2497.4
2323.03
2144.41
1961.67
1775.01
1584.71
1391.15
1194.74
995.949
795.32
593.424
390.868
188.291
-13.6483
-214.28
-412.927
-608.918
-801.587
-990.292
-1174.41
-1353.36
-1526.59
-1693.59
-1853.91
-2007.16
-2153
-2291.17
-2421.45
-2543.73
-2657.96
-2764.16
-2862.44
-2953
-3036.11
-3112.12
-3181.5
-3244.76
-3302.53
-3355.53
-3404.55
-3450.49
-3494.37
-3537.27
-3580.41
-3625.14
-3672.94
-3725.44
-3784.47
-3852.06
-3930.5
-4022.43
-4130.83
-4259.23
-4411.78
-4593.45
-4810.29
-5069.83
-5381.52
-5757.56
-6214.01
-6772.59
-7463.65
-8331.46
-9444.43
-10916.8
-12960.2
-16023.2
-21210.7
23693
18491.9
15403
13322.8
11804.9
10639.2
9713.1
8959.23
8334.04
7807.61
7358.46
6970.58
6631.77
6332.48
6065.1
5823.49
5602.6
5398.21
5206.81
5025.41
4851.45
4682.75
4517.41
4353.82
4190.58
4026.51
3860.6
3691.99
3520.02
3344.11
3163.88
2979.02
2789.37
2594.87
2395.57
2191.61
1983.24
1770.77
1554.62
1335.25
1113.21
889.091
663.535
437.226
210.88
-14.7671
-238.962
-460.949
-679.972
-895.29
-1106.18
-1311.95
-1511.93
-1705.52
-1892.15
-2071.31
-2242.56
-2405.52
-2559.88
-2705.43
-2842.01
-2969.57
-3088.14
-3197.83
-3298.86
-3391.52
-3476.21
-3553.44
-3623.77
-3687.91
-3746.63
-3800.83
-3851.48
-3899.7
-3946.69
-3993.79
-4042.46
-4094.32
-4151.15
-4214.92
-4287.82
-4372.33
-4471.23
-4587.73
-4725.51
-4888.93
-5083.15
-5314.4
-5590.36
-5920.62
-6317.42
-6796.76
-7380.15
-8097.49
-8992.33
-10132
-11629.1
-13693.8
-16772.3
-21968.1
24558.8
19351.4
16250.3
14153.1
12614.6
11426.1
10475.9
9697.64
9048.31
8498.44
8026.8
7617.5
7258.37
6939.81
6654.13
6395.07
6157.45
5936.93
5729.85
5533.08
5343.94
5160.12
4979.63
4800.74
4621.97
4442.05
4259.89
4074.61
3885.45
3691.84
3493.33
3289.63
3080.56
2866.05
2646.18
2421.12
2191.13
1956.57
1717.9
1475.65
1230.42
982.859
733.692
483.673
233.596
-15.723
-263.45
-508.746
-750.776
-988.716
-1221.77
-1449.16
-1670.16
-1884.09
-2090.33
-2288.31
-2477.53
-2657.57
-2828.11
-2988.89
-3139.73
-3280.59
-3411.47
-3532.52
-3643.95
-3746.09
-3839.38
-3924.36
-4001.66
-4072.03
-4136.33
-4195.53
-4250.69
-4303.02
-4353.84
-4404.57
-4456.82
-4512.32
-4572.97
-4640.9
-4718.44
-4808.21
-4913.14
-5036.6
-5182.44
-5355.15
-5560.04
-5803.46
-6093.19
-6438.86
-6852.7
-7350.57
-7953.74
-8691.68
-9607.32
-10767.1
-12282.6
-14362.6
-17452.2
-22653.9
25365.6
20153.4
17043.1
14933
13378.6
12172.2
11202.8
10404.6
9735.22
9165.58
8674.66
8246.75
7869.7
7533.94
7231.74
6956.75
6703.71
6468.17
6246.36
6035.04
5831.44
5633.13
5438.03
5244.31
5050.42
4855.01
4656.94
4455.25
4249.17
4038.07
3821.5
3599.13
3370.79
3136.43
2896.13
2650.07
2398.57
2142.02
1880.92
1615.87
1347.52
1076.59
803.871
530.2
256.444
-16.4987
-287.713
-556.277
-821.273
-1081.8
-1336.98
-1585.96
-1827.95
-2062.19
-2288
-2504.76
-2711.92
-2909.02
-3095.69
-3271.66
-3436.72
-3590.82
-3733.97
-3866.31
-3988.07
-4099.62
-4201.42
-4294.04
-4378.18
-4454.66
-4524.38
-4588.39
-4647.86
-4704.06
-4758.42
-4812.48
-4867.93
-4926.63
-4990.62
-5062.12
-5143.62
-5237.85
-5347.9
-5477.24
-5629.87
-5810.38
-6024.19
-6277.75
-6578.86
-6937.17
-7364.83
-7877.59
-8496.44
-9250.5
-10182.1
-11357.2
-12886.4
-14977.7
-18075.4
-23281.4
26123.1
20907.2
17789.9
15669.8
14103
12882.3
11897.3
11082.8
10396.7
9810.4
9302.96
8858.86
8466.05
8114.97
7797.87
7508.37
7241.14
6991.65
6756.04
6531
6313.64
6101.45
5892.28
5684.21
5475.62
5265.1
5051.44
4833.65
4610.91
4382.57
4148.14
3907.31
3659.88
3405.83
3145.23
2878.32
2605.43
2327
2043.59
1755.83
1464.44
1170.23
874.042
576.791
279.425
-17.0771
-311.718
-603.493
-891.403
-1174.46
-1451.72
-1722.25
-1985.17
-2239.68
-2485.02
-2720.52
-2945.57
-3159.68
-3362.44
-3553.54
-3732.78
-3900.06
-4055.41
-4198.97
-4330.99
-4451.86
-4562.06
-4662.22
-4753.09
-4835.51
-4910.49
-4979.14
-5042.7
-5102.53
-5160.16
-5217.21
-5275.49
-5336.98
-5403.8
-5478.31
-5563.1
-5661.04
-5775.31
-5909.51
-6067.72
-6254.66
-6475.8
-6737.64
-7048.02
-7416.55
-7855.32
-8379.92
-9011.13
-9777.73
-10721.7
-11908.3
-13447.8
-15547.5
-18651.2
-23860.3
26838.7
21620
18497.2
16369.2
14792.5
13560.3
12562.7
11734.7
11034.7
10434.2
9912.6
9454.43
9047.75
8683.03
8352.52
8049.83
7769.55
7507.13
7258.62
7020.63
6790.2
6564.76
6342.05
6120.12
5897.26
5672
5443.11
5209.52
4970.4
4725.07
4473.02
4213.93
3947.61
3674.03
3393.32
3105.7
2811.56
2511.39
2205.78
1895.43
1581.13
1263.73
944.166
623.427
302.537
-17.4416
-335.43
-650.342
-961.095
-1266.62
-1565.89
-1857.9
-2141.7
-2416.41
-2681.23
-2935.4
-3178.29
-3409.36
-3628.14
-3834.32
-4027.66
-4208.06
-4375.54
-4530.24
-4672.43
-4802.52
-4921.03
-5028.61
-5126.06
-5214.3
-5294.38
-5367.47
-5434.9
-5498.12
-5558.73
-5618.46
-5679.21
-5743.05
-5812.23
-5889.2
-5976.65
-6077.56
-6195.22
-6333.31
-6496.01
-6688.1
-6915.12
-7183.61
-7501.39
-7878.07
-8325.63
-8859.55
-9500.4
-10276.7
-11230.1
-12425.5
-13972.8
-16078.8
-19186.9
-24398.3
27518.1
22297.2
19170
17035.7
15451.1
14209.6
13201.6
12362.4
11650.8
11038.2
10504.4
10034
9615.14
9238.28
8895.71
8581.02
8288.78
8014.37
7753.8
7503.62
7260.8
7022.69
6786.99
6551.67
6314.97
6075.38
5831.59
5582.54
5327.33
5065.27
4795.85
4518.72
4233.72
3940.82
3640.17
3332.02
3016.8
2695.03
2367.37
2034.57
1697.47
1357.01
1014.2
670.082
325.777
-17.5756
-358.813
-696.766
-1030.27
-1358.18
-1679.37
-1992.78
-2297.38
-2592.22
-2876.43
-3149.21
-3409.86
-3657.8
-3892.54
-4113.72
-4321.08
-4514.52
-4694.05
-4859.81
-5012.08
-5151.29
-5277.99
-5392.88
-5496.78
-5590.68
-5675.68
-5753.03
-5824.13
-5890.49
-5953.81
-6015.91
-6078.77
-6144.57
-6215.63
-6294.53
-6384.04
-6487.23
-6607.48
-6748.57
-6914.75
-7110.84
-7342.45
-7616.12
-7939.7
-8322.72
-8777.13
-9318.27
-9966.55
-10750.3
-11710.9
-12913
-14466.1
-16576.7
-19688.2
-24901.2
28165.8
22943.1
19812.5
17673.1
16082.1
14832.9
13816.3
12967.9
12246.3
11623.5
11079.2
10598.2
10168.5
9780.87
9427.46
9101.86
8798.65
8513.14
8241.32
7979.66
7725.09
7474.9
7226.73
6978.5
6728.39
6474.85
6216.54
5952.34
5681.35
5402.84
5116.31
4821.4
4517.94
4205.94
3885.55
3557.06
3220.94
2877.75
2528.21
2173.11
1813.38
1450.01
1084.08
716.723
349.135
-17.4634
-381.827
-742.703
-1098.84
-1449.02
-1792.03
-2126.73
-2452.03
-2766.9
-3070.41
-3361.7
-3640.03
-3904.76
-4155.37
-4391.45
-4612.76
-4819.14
-5010.62
-5187.34
-5349.59
-5497.81
-5632.59
-5754.65
-5864.87
-5964.28
-6054.04
-6135.46
-6210
-6279.27
-6345.03
-6409.19
-6473.83
-6541.19
-6613.71
-6694.03
-6785.03
-6889.86
-7011.99
-7155.26
-7323.98
-7523.05
-7758.09
-8035.67
-8363.63
-8751.47
-9211.08
-9757.7
-10411.6
-11201
-12167
-13374
-14931.5
-17045.6
-20159.5
-25373.8
28785.2
23561.1
20427.7
18284.2
16687.9
15432.5
14408.7
13552.5
12822.6
12191.1
11637.7
11147.3
10708.2
10310.9
9947.75
9612.25
9298.96
9003.19
8720.86
8448.41
8182.71
7921.01
7660.88
7400.21
7137.12
6870.03
6597.55
6318.55
6032.09
5737.44
5434.06
5121.63
4799.97
4469.1
4129.19
3780.58
3423.77
3059.36
2688.12
2310.92
1928.73
1542.62
1153.74
763.313
372.601
-17.0897
-404.43
-788.083
-1166.72
-1539.02
-1903.72
-2259.59
-2605.47
-2940.25
-3262.94
-3572.63
-3868.52
-4149.93
-4416.3
-4667.19
-4902.33
-5121.56
-5324.88
-5512.45
-5684.57
-5841.69
-5984.42
-6113.52
-6229.92
-6334.68
-6429.03
-6514.33
-6592.12
-6664.07
-6732.02
-6797.95
-6864.03
-6932.58
-7006.14
-7087.42
-7179.39
-7285.27
-7408.6
-7553.3
-7723.75
-7924.86
-8162.32
-8442.69
-8773.82
-9165.18
-9628.6
-10179.3
-10837.3
-11630.8
-12600.8
-13811.5
-15372.1
-17488.8
-20604.5
-25819.7
29379.2
24153.9
21018.2
18871.3
17270.7
16010.1
14980.4
14117.6
13380.6
12741.6
12180.3
11681.9
11234.4
10828.5
10456.6
10112
9789.52
9484.24
9192.11
8909.51
8633.27
8360.6
8089.02
7816.36
7540.73
7260.48
6974.21
6680.75
6379.14
6068.65
5748.74
5419.06
5079.46
4729.98
4370.8
4002.31
3625.03
3239.63
2846.92
2447.82
2043.38
1634.74
1223.12
809.807
396.159
-16.4403
-426.579
-832.835
-1233.8
-1628.07
-2014.3
-2391.18
-2757.47
-3112.02
-3453.76
-3781.71
-4095.04
-4392.99
-4674.99
-4940.57
-5189.42
-5421.38
-5636.43
-5834.73
-6016.59
-6182.48
-6333.03
-6469.05
-6591.48
-6701.44
-6800.21
-6889.21
-6970.05
-7044.45
-7114.33
-7181.77
-7248.98
-7318.39
-7392.59
-7474.4
-7566.85
-7673.24
-7797.18
-7942.65
-8114.07
-8316.42
-8555.39
-8837.59
-9170.84
-9564.6
-10030.7
-10584.2
-11245.2
-12041.6
-13014.5
-14227.8
-15790.7
-17909.2
-21026.1
-26242
29949.9
24723.6
21586
19436.4
17832.1
16567.2
15532.5
14664.1
13921.2
13275.7
12707.6
12202
11747.2
11333.6
10953.8
10601.1
10270.1
9955.99
9654.7
9362.56
9076.35
8793.23
8510.68
8226.49
7938.74
7645.73
7346.05
7038.49
6722.08
6396.08
6059.93
5713.3
5356.06
4988.23
4610.07
4221.96
3824.48
3418.34
3004.4
2583.65
2157.2
1726.26
1292.12
856.153
419.79
-15.5016
-448.226
-876.88
-1299.97
-1716.01
-2123.58
-2521.29
-2907.83
-3281.97
-3642.58
-3988.64
-4319.23
-4633.59
-4931.08
-5211.2
-5473.63
-5718.17
-5944.82
-6153.72
-6345.19
-6519.72
-6677.96
-6820.74
-6949.06
-7064.07
-7167.09
-7259.62
-7343.3
-7419.95
-7491.54
-7560.21
-7628.28
-7698.22
-7772.72
-7854.66
-7947.15
-8053.56
-8177.56
-8323.2
-8494.94
-8697.8
-8937.51
-9220.7
-9555.17
-9950.41
-10418.1
-10973.5
-11636.4
-12434.8
-13409.6
-14624.7
-16189.1
-18308.9
-21426.7
-26643
30498.9
25271.8
22132.6
19980.7
18373.5
17104.9
16066.1
15193
14444.9
13793.8
13219.9
12708.1
12246.6
11826.3
11439.3
11079.1
10740.3
10418.1
10108.3
9807.15
9511.5
9218.43
8925.38
8630.12
8330.66
8025.3
7712.58
7391.28
7060.43
6719.24
6367.19
6003.94
5629.35
5243.5
4846.64
4439.21
4021.81
3595.21
3160.33
2718.21
2270.02
1817.04
1360.65
902.293
443.471
-14.2616
-469.326
-920.137
-1365.11
-1802.7
-2231.38
-2649.7
-3056.28
-3449.81
-3829.11
-4193.07
-4540.76
-4871.35
-5184.15
-5478.66
-5754.5
-6011.48
-6249.57
-6468.92
-6669.86
-6852.89
-7018.68
-7168.09
-7302.14
-7422.04
-7529.16
-7625.03
-7711.38
-7790.07
-7863.15
-7932.82
-8001.47
-8071.66
-8146.13
-8227.85
-8319.98
-8425.97
-8549.56
-8694.83
-8866.31
-9069.06
-9308.84
-9592.29
-9927.23
-10323.1
-10791.7
-11348.1
-12012.1
-12811.7
-13787.6
-15003.9
-16569.3
-18689.8
-21808.2
-27024.8
31027.5
25799.8
22659.3
20505.5
18895.8
17624.2
16581.8
15704.7
14952.2
14296.3
13717.3
13200
12732.8
12306.3
11912.8
11545.9
11199.9
10870.1
10552.3
10242.8
9938.22
9635.69
9332.61
9026.7
8715.96
8398.64
8073.28
7738.62
7393.68
7037.67
6670.06
6290.52
5898.93
5495.38
5080.15
4653.71
4216.72
3769.98
3314.47
2851.28
2381.66
1906.96
1428.62
948.163
467.175
-12.7091
-489.83
-962.519
-1429.11
-1887.98
-2337.52
-2776.2
-3202.57
-3615.26
-4013
-4394.67
-4759.24
-5105.85
-5433.78
-5742.48
-6031.55
-6300.8
-6550.17
-6779.82
-6990.08
-7181.45
-7354.63
-7510.51
-7650.15
-7774.79
-7885.84
-7984.9
-8073.74
-8154.29
-8228.65
-8299.1
-8368.1
-8438.26
-8512.41
-8593.58
-8685.01
-8790.19
-8912.94
-9057.38
-9228.1
-9430.21
-9669.47
-9952.56
-10287.3
-10683.2
-11152
-11708.6
-12373.1
-13173.2
-14149.7
-15366.5
-16932.5
-19053.4
-22172.1
-27388.9
31536.7
26308.5
23166.9
21011.5
19399.7
18125.5
17080.2
16199.7
15443.4
14783.4
14199.9
13677.8
13205.4
12773.4
12374.1
12001
11648.5
11311.7
10986.5
10669
10356
10044.5
9731.8
9415.68
9094.07
8765.21
8427.59
8079.95
7721.3
7350.84
6968.04
6572.57
6164.33
5743.44
5310.19
4865.11
4408.87
3942.34
3466.55
2982.65
2491.95
1995.86
1495.91
993.691
490.872
-10.8347
-509.689
-1003.94
-1491.84
-1971.67
-2441.78
-2900.53
-3346.41
-3777.99
-4193.93
-4593.04
-4974.25
-5336.65
-5679.49
-6002.18
-6304.3
-6585.62
-6846.09
-7085.86
-7305.26
-7504.81
-7685.24
-7847.44
-7992.51
-8121.73
-8236.56
-8338.64
-8429.8
-8512.03
-8587.49
-8658.52
-8727.64
-8797.54
-8871.12
-8951.46
-9041.87
-9145.91
-9267.44
-9410.66
-9580.19
-9781.18
-10019.4
-10301.7
-10635.7
-11031
-11499.4
-12055.8
-12720.2
-13520.3
-14496.8
-15713.8
-17279.8
-19401
-22519.7
-27736.5
32027.2
26798.5
23656
21499.3
19885.8
18609.5
17561.6
16678.2
15918.7
15255.1
14667.7
14141.3
13664.4
13227.5
12822.9
12444.2
12085.6
11742.4
11410.2
11085.3
10764.3
10444.2
10122.4
9796.46
9464.4
9124.39
8774.92
8414.7
8042.72
7658.2
7260.59
6849.58
6425.08
5987.23
5536.36
5073.01
4597.91
4111.98
3616.29
3112.06
2600.66
2083.58
1562.4
1038.8
514.528
-8.63061
-528.851
-1044.3
-1553.15
-2053.62
-2543.94
-3022.45
-3487.53
-3937.68
-4371.52
-4787.79
-5185.38
-5563.32
-5920.81
-6257.25
-6572.19
-6865.37
-7136.74
-7386.44
-7614.81
-7822.37
-8009.87
-8178.23
-8328.57
-8462.22
-8580.68
-8685.64
-8778.96
-8862.7
-8939.09
-9010.51
-9079.57
-9149
-9221.78
-9301.04
-9390.16
-9492.77
-9612.77
-9754.43
-9922.4
-10121.9
-10358.7
-10639.6
-10972.5
-11366.8
-11834.3
-12390
-13053.8
-13853.4
-14829.7
-16046.4
-17612.3
-19733.3
-22852
-28068.8
32499.4
27270.3
24127.1
21969.3
20354.3
19076.2
18026.2
17140.4
16378
15711.4
15120.5
14590.4
14109.4
13668.1
13258.8
12874.9
12510.8
12161.5
11822.9
11491
11162.4
10834.2
10503.7
10168.4
9826.31
9475.57
9114.65
8742.26
8357.36
7959.18
7547.17
7121.03
6680.68
6226.28
5758.2
5277.01
4783.47
4278.56
3763.4
3239.27
2707.6
2169.95
1627.97
1083.41
538.103
-6.09061
-547.266
-1083.51
-1612.92
-2133.63
-2643.8
-3141.68
-3625.6
-4093.99
-4545.4
-4978.51
-5392.17
-5785.35
-6157.23
-6507.16
-6834.67
-7139.48
-7421.53
-7680.96
-7918.09
-8133.48
-8327.88
-8502.23
-8657.69
-8795.62
-8917.56
-9025.23
-9120.57
-9205.68
-9282.84
-9354.5
-9423.31
-9492.1
-9563.88
-9641.85
-9729.46
-9830.39
-9948.6
-10088.4
-10254.5
-10452.2
-10687.2
-10966.5
-11297.8
-11690.7
-12156.9
-12711.5
-13374.3
-14173.2
-15148.8
-16365
-17930.5
-20051.3
-23169.8
-28386.5
32953.6
27724.2
24580.4
22421.7
20805.4
19525.8
18474
17586.1
16821.3
16152
15558.1
15024.8
14540.2
14095
13681.3
13292.7
12923.5
12568.6
12223.9
11885.5
11549.8
11213.9
10875.1
10530.9
10179.1
9818.09
9446.14
9061.99
8664.6
8253.19
7827.21
7386.36
6930.61
6460.1
5975.26
5476.67
4965.17
4441.74
3907.57
3364.01
2812.54
2254.79
1692.48
1127.43
561.556
-3.2105
-564.885
-1121.48
-1671
-2211.51
-2741.11
-3257.96
-3760.32
-4246.56
-4715.17
-5164.77
-5594.16
-6002.27
-6388.23
-6751.35
-7091.16
-7407.34
-7699.84
-7968.76
-8214.46
-8437.48
-8638.59
-8818.76
-8979.18
-9121.24
-9246.5
-9356.76
-9453.98
-9540.32
-9618.1
-9689.86
-9758.29
-9826.27
-9896.88
-9973.4
-10059.3
-10158.4
-10274.6
-10412.3
-10576.3
-10771.8
-11004.8
-11282.1
-11611.6
-12002.8
-12467.4
-13020.6
-13682.2
-14480
-15454.7
-16670.2
-18235.1
-20355.4
-23473.7
-28690.2
33389.9
28160.2
25015.9
22856.4
21239.1
19958.3
18904.9
18015.2
17248.4
16576.8
15980.3
15444.1
14956.3
14507.5
14090
13697.1
13323.1
12963.1
12612.8
12268.2
11925.8
11582.7
11235.9
10883.2
10522.2
10151.3
9768.72
9373.24
8963.8
8539.59
8100.09
7645.01
7174.31
6688.18
6187.06
5671.57
5142.59
4601.15
4048.48
3486
2915.25
2337.91
1755.79
1170.78
584.842
0.0118849
-581.657
-1158.1
-1727.25
-2287.09
-2835.64
-3371
-3891.37
-4395.04
-4880.43
-5346.13
-5790.87
-6213.55
-6613.25
-6989.26
-7341.06
-7668.35
-7971.02
-8249.2
-8503.23
-8733.67
-8941.31
-9127.13
-9292.34
-9438.36
-9566.82
-9679.52
-9778.49
-9865.93
-9944.23
-10016
-10083.9
-10150.9
-10220.2
-10295.2
-10379.2
-10476.2
-10590.2
-10725.7
-10887.3
-11080.6
-11311.3
-11586.4
-11913.8
-12303
-12765.9
-13317.4
-13977.5
-14774.1
-15747.7
-16962.2
-18526.4
-20646.2
-23764.1
-28980.5
33808.2
28578.4
25433.6
23273.5
21655.4
20373.4
19318.8
18427.5
17659
16985.4
16386.6
15847.8
15357.2
14905.2
14484.2
14087.4
13709.1
13344.4
12988.8
12638.4
12289.7
11939.7
11585.5
11224.6
10854.8
10474.4
10081.7
9675.34
9254.3
8817.77
8365.22
7896.39
7411.24
6910
6393.11
5861.25
5315.32
4756.41
4185.81
3604.96
3015.48
2419.13
1817.76
1213.34
607.91
3.57659
-597.533
-1193.28
-1781.52
-2360.16
-2927.15
-3480.53
-4018.41
-4539.04
-5040.77
-5522.14
-5981.82
-6418.67
-6831.75
-7220.3
-7583.77
-7921.85
-8234.41
-8521.59
-8783.72
-9021.36
-9235.32
-9426.6
-9596.44
-9746.28
-9877.78
-9992.8
-10093.4
-10181.8
-10260.5
-10332.1
-10399.4
-10465.5
-10533.4
-10606.6
-10688.7
-10783.5
-10895.2
-11028.2
-11187.4
-11378.2
-11606.5
-11879.2
-12204.3
-12591.4
-13052.2
-13601.9
-14260.4
-15055.5
-16027.9
-17241.3
-18804.7
-20923.9
-24041.3
-29257.5
34208.4
28978.4
25833.3
23672.6
22053.8
20771
19715.3
18822.8
18052.7
17377.4
16776.7
16235.6
15742.4
15287.6
14863.4
14463
14080.8
13711.6
13351.2
12995.4
12640.8
12284.3
11923
11554.4
11176.3
10786.8
10384.4
9967.61
9535.43
9087.06
8621.97
8139.9
7640.83
7125.01
6592.91
6045.25
5482.95
4907.15
4319.2
3720.59
3113
2498.23
1878.23
1255.02
630.711
7.48144
-612.466
-1226.92
-1833.66
-2430.53
-3015.4
-3586.25
-4141.12
-4678.19
-5195.77
-5692.34
-6166.51
-6617.12
-7043.16
-7443.87
-7818.66
-8167.2
-8489.36
-8785.25
-9055.22
-9299.83
-9519.9
-9716.45
-9890.74
-10044.2
-10178.7
-10295.9
-10398
-10487.3
-10566.3
-10637.7
-10704.3
-10769.2
-10835.7
-10907.1
-10987.1
-11079.7
-11189
-11319.5
-11476.1
-11664.3
-11890
-12160.2
-12482.9
-12867.7
-13326.5
-13874.2
-14530.9
-15324.4
-16295.4
-17507.7
-19070.2
-21188.6
-24305.6
-29521.6
34590.3
29360.1
26214.7
24053.6
22434.3
21150.7
20094.1
19200.5
18429.2
17752.3
17149.9
16606.9
16111.5
15654.1
15227
14823.4
14437.5
14064.3
13699.3
13338.5
12978.4
12615.8
12247.8
11871.8
11485.8
11087.8
10676.1
10249.3
9806.52
9346.82
8869.71
8374.94
7862.51
7332.68
6785.96
6223.09
5645.04
5052.99
4448.32
3832.6
3207.54
2575.03
1937.05
1295.71
653.187
11.7219
-626.41
-1258.92
-1883.53
-2498.01
-3100.15
-3687.87
-4259.15
-4812.11
-5345.01
-5856.26
-6344.44
-6808.34
-7246.92
-7659.38
-8045.11
-8403.75
-8735.18
-9039.49
-9317.02
-9568.36
-9794.31
-9995.93
-10174.5
-10331.5
-10468.7
-10588
-10691.5
-10781.7
-10860.9
-10932
-10997.9
-11061.6
-11126.5
-11196.1
-11274
-11364.3
-11471.1
-11599
-11753
-11938.5
-12161.6
-12429.3
-12749.5
-13131.9
-13588.4
-14134.1
-14789
-15580.8
-16550.3
-17761.4
-19322.9
-21440.6
-24557.1
-29772.8
34953.4
29723.2
26577.6
24416.1
22796.3
21512.1
20454.7
19560.2
18787.8
18109.7
17505.8
16961.1
16463.7
16004.1
15574.3
15167.8
14778.6
14401.6
14032.4
13667
13301.7
12933.3
12559
12176.3
11782.7
11376.5
10956
10519.8
10066.9
9596.37
9107.79
8600.89
8075.69
7532.46
6971.74
6394.3
5801.16
5193.52
4572.82
3940.68
3298.86
2649.31
1994.07
1335.31
675.284
16.2912
-639.321
-1289.2
-1930.99
-2562.39
-3181.16
-3785.11
-4372.18
-4940.43
-5488.07
-6013.45
-6515.12
-6991.81
-7442.46
-7866.22
-8262.49
-8630.86
-8971.2
-9283.61
-9568.42
-9826.22
-10057.8
-10264.3
-10447
-10607.3
-10747.2
-10868.4
-10973.3
-11064.1
-11143.6
-11214.3
-11279.4
-11341.9
-11405.3
-11473
-11548.8
-11636.7
-11741
-11866.4
-12017.7
-12200.5
-12421
-12686
-13003.7
-13383.7
-13837.9
-14381.5
-15034.4
-15824.5
-16792.6
-18002.4
-19562.9
-21679.8
-24795.8
-30011.2
35297.5
30067.2
26921.4
24759.7
23139.4
21854.8
20796.8
19901.5
19128.2
18449
17843.9
17297.6
16798.5
16336.8
15904.8
15495.5
15103.3
14722.9
14349.9
13980.1
13610
13236.3
12856.1
12466.8
12066.2
11652.4
11223.5
10778.4
10315.8
9835.07
9335.59
8817.15
8279.79
7723.8
7149.74
6558.42
5950.87
5328.36
4692.36
4044.53
3386.7
2720.86
2049.12
1373.71
696.94
21.18
-651.159
-1317.65
-1975.89
-2623.51
-3258.18
-3877.67
-4479.87
-5062.78
-5624.53
-6163.46
-6678.05
-7167
-7629.21
-8063.82
-8470.17
-8847.87
-9196.76
-9516.92
-9808.7
-10072.7
-10309.7
-10520.8
-10707.4
-10871
-11013.3
-11136.4
-11242.5
-11334.1
-11413.6
-11484
-11548.2
-11609.6
-11671.3
-11737.2
-11810.9
-11896.5
-11998.3
-12121.1
-12269.8
-12449.9
-12667.7
-12930.1
-13245.2
-13622.8
-14074.7
-14616.2
-15267.2
-16055.6
-17022.1
-18230.7
-19790.1
-21906.3
-25021.7
-30236.9
35622.1
30391.7
27245.8
25083.9
23463.3
22178.3
21119.8
20223.9
19449.8
18769.7
18163.4
17615.9
17115.2
16651.8
16217.6
15806
15411
15027.5
14650.9
14277.1
13902.6
13523.9
13138.2
12742.9
12335.6
11914.6
11477.9
11024.3
10552.7
10062.3
9552.48
9023.12
8474.25
7906.17
7319.47
6714.97
6093.76
5457.13
4806.59
4143.85
3470.81
2789.48
2102.05
1410.8
718.094
26.3767
-661.884
-1344.2
-2018.11
-2681.16
-3330.99
-3965.3
-4581.91
-5178.78
-5753.99
-6305.83
-6832.74
-7333.38
-7806.63
-8251.57
-8667.55
-9054.15
-9411.19
-9738.75
-10037.2
-10307.1
-10549.2
-10764.8
-10955.1
-11121.7
-11266.4
-11391.3
-11498.5
-11590.7
-11670.3
-11740.3
-11803.7
-11863.8
-11924.1
-11988.1
-12059.7
-12143
-12242.4
-12362.6
-12508.7
-12686.2
-12901.3
-13161.1
-13473.8
-13849
-14298.6
-14838
-15487.1
-16273.7
-17238.7
-18446
-20004.4
-22119.8
-25234.7
-30449.6
35926.8
30696.3
27550.3
25388.2
23767.4
22482
21423.2
20526.8
19752.1
19071.2
18464
17915.3
17413.3
16948.2
16512.2
16098.5
15701
15314.6
14934.8
14557.3
14178.6
13795.4
13404.6
13003.6
12590.2
12162.4
11718.4
11256.9
10776.8
10277.3
9757.83
9218.21
8658.5
8079.03
7480.41
6863.5
6229.39
5579.43
4915.17
4238.35
3550.92
2854.96
2152.69
1446.46
738.685
31.8672
-671.464
-1368.76
-2057.5
-2735.17
-3399.35
-4047.7
-4677.98
-5288.08
-5876.05
-6440.13
-6978.73
-7490.46
-7974.16
-8428.92
-8854.03
-9249.06
-9613.84
-9948.42
-10253.2
-10528.6
-10775.7
-10995.5
-11189.3
-11358.8
-11505.7
-11632.3
-11740.6
-11833.3
-11913
-11982.6
-12045.2
-12104.1
-12162.9
-12225.1
-12294.7
-12375.8
-12472.8
-12590.6
-12734.1
-12909
-13121.6
-13378.8
-13689
-14061.9
-14509.3
-15046.6
-15693.8
-16478.8
-17442.3
-18648.3
-20205.7
-22320.3
-25434.7
-30649.4
36211
30980.5
27834.4
25672.2
24051.2
22765.6
21706.4
20809.6
20034.4
19352.9
18744.9
18195.2
17692
17225.6
16788
16372.2
15972.5
15583.6
15200.8
14820
14437.5
14050
13654.5
13248.4
12829.3
12395.2
11944.4
11475.6
10987.6
10479.5
9951.04
9401.83
8831.99
8241.87
7632.09
7003.54
6357.35
5694.89
5017.76
4327.74
3626.81
2917.1
2200.9
1480.58
758.648
37.6353
-679.866
-1391.25
-2093.94
-2785.38
-3463.07
-4124.63
-4767.77
-5390.33
-5990.33
-6565.94
-7115.54
-7637.73
-8131.29
-8595.29
-9029.02
-9432.01
-9804.08
-10145.3
-10456
-10736.7
-10988.4
-11212.2
-11409.3
-11581.5
-11730.6
-11858.7
-11968
-12061.2
-12140.9
-12210.1
-12272
-12329.8
-12387.1
-12447.6
-12515.2
-12594.2
-12689
-12804.4
-12945.4
-13117.9
-13328
-13582.8
-13890.6
-14261.2
-14706.5
-15241.8
-15887.2
-16670.5
-17632.6
-18837.4
-20393.8
-22507.7
-25621.6
-30836
36474.3
31243.8
28097.6
25935.3
24314.2
23028.5
21969
21071.9
20296.3
19614.2
19005.5
18455.1
17950.9
17483.2
17044.1
16626.7
16225
15833.7
15448.3
15064.5
14678.6
14287.2
13887.4
13476.5
13052.1
12612.3
12155.3
11679.6
11184.3
10668.4
10131.5
9573.44
8994.2
8394.19
7774.05
7134.68
6477.25
5803.16
5114.05
4411.72
3698.22
2975.7
2246.51
1513.07
777.92
43.6623
-687.065
-1411.61
-2127.32
-2831.61
-3521.93
-4195.83
-4850.99
-5485.21
-6096.45
-6682.85
-7242.76
-7774.72
-8277.52
-8750.18
-9191.97
-9602.42
-9981.33
-10328.8
-10645
-10930.7
-11186.8
-11414.2
-11614.5
-11789.2
-11940.3
-12069.8
-12180.1
-12273.8
-12353.5
-12422.4
-12483.5
-12540.2
-12596.2
-12655
-12720.9
-12797.8
-12890.5
-13003.6
-13142.3
-13312.4