/*--------------------------------*- C++ -*----------------------------------*\
  =========                 |
  \\      /  F ield         | OpenFOAM: The Open Source CFD Toolbox
   \\    /   O peration     | Website:  https://openfoam.org
    \\  /    A nd           | Version:  9
     \\/     M anipulation  |
\*---------------------------------------------------------------------------*/
FoamFile
{
    format      ascii;
    class       volScalarField;
    location    "0.45";
    object      T;
}
// * * * * * * * * * * * * * * * * * * * * * * * * * * * * * * * * * * * * * //

dimensions      [0 0 0 1 0 0 0];

internalField   nonuniform List<scalar> 
200000
(
300.36
300.665
300.84
300.96
301.053
301.13
301.195
301.252
301.304
301.351
301.394
301.435
301.473
301.509
301.543
301.575
301.606
301.636
301.664
301.692
301.718
301.744
301.768
301.792
301.814
301.836
301.857
301.877
301.896
301.914
301.932
301.948
301.963
301.977
301.99
302.003
302.014
302.023
302.032
302.04
302.046
302.052
302.056
302.058
302.06
302.061
302.06
302.058
302.055
302.051
302.046
302.039
302.032
302.023
302.014
302.003
301.992
301.98
301.967
301.953
301.938
301.923
301.907
301.89
301.873
301.856
301.837
301.819
301.8
301.781
301.761
301.741
301.721
301.7
301.679
301.658
301.637
301.615
301.593
301.571
301.548
301.525
301.501
301.476
301.451
301.424
301.397
301.368
301.337
301.304
301.268
301.229
301.186
301.137
301.08
301.013
300.929
300.817
300.652
300.355
300.665
301.403
301.881
302.228
302.501
302.727
302.922
303.093
303.247
303.388
303.517
303.638
303.752
303.859
303.961
304.058
304.151
304.24
304.326
304.408
304.487
304.564
304.637
304.708
304.776
304.842
304.904
304.965
305.022
305.076
305.128
305.177
305.222
305.265
305.304
305.341
305.374
305.403
305.43
305.452
305.472
305.488
305.5
305.508
305.514
305.515
305.513
305.507
305.498
305.486
305.47
305.451
305.429
305.403
305.375
305.343
305.309
305.272
305.233
305.191
305.148
305.102
305.054
305.004
304.953
304.9
304.845
304.79
304.733
304.675
304.616
304.556
304.495
304.434
304.371
304.308
304.244
304.179
304.113
304.046
303.977
303.907
303.836
303.762
303.686
303.607
303.524
303.437
303.345
303.246
303.14
303.023
302.894
302.748
302.579
302.379
302.133
301.813
301.362
300.652
300.84
301.881
302.605
303.152
303.592
303.961
304.279
304.562
304.817
305.049
305.265
305.465
305.654
305.833
306.002
306.164
306.318
306.466
306.609
306.746
306.878
307.005
307.128
307.246
307.359
307.468
307.573
307.673
307.768
307.859
307.945
308.026
308.102
308.173
308.239
308.3
308.355
308.404
308.448
308.486
308.518
308.545
308.565
308.579
308.588
308.59
308.587
308.578
308.563
308.542
308.515
308.483
308.446
308.404
308.356
308.304
308.247
308.186
308.12
308.051
307.978
307.901
307.821
307.739
307.653
307.565
307.474
307.381
307.286
307.19
307.092
306.992
306.891
306.788
306.684
306.579
306.472
306.364
306.254
306.142
306.028
305.912
305.792
305.67
305.543
305.412
305.274
305.13
304.977
304.813
304.636
304.443
304.23
303.99
303.714
303.389
302.994
302.491
301.813
300.817
300.96
302.228
303.152
303.873
304.464
304.966
305.403
305.793
306.145
306.468
306.767
307.047
307.31
307.559
307.795
308.021
308.237
308.444
308.643
308.835
309.019
309.197
309.369
309.534
309.692
309.845
309.991
310.131
310.265
310.392
310.512
310.626
310.732
310.832
310.924
311.009
311.086
311.155
311.216
311.269
311.315
311.351
311.38
311.4
311.412
311.416
311.411
311.398
311.377
311.348
311.311
311.266
311.214
311.154
311.088
311.015
310.935
310.849
310.758
310.661
310.558
310.451
310.339
310.223
310.103
309.98
309.853
309.723
309.59
309.455
309.318
309.178
309.036
308.893
308.747
308.6
308.45
308.299
308.145
307.989
307.83
307.667
307.5
307.329
307.152
306.969
306.777
306.576
306.363
306.135
305.89
305.623
305.328
304.998
304.62
304.18
303.652
302.993
302.133
300.929
301.053
302.501
303.592
304.464
305.191
305.816
306.365
306.856
307.303
307.714
308.095
308.452
308.788
309.106
309.409
309.698
309.975
310.241
310.496
310.742
310.979
311.208
311.428
311.64
311.844
312.04
312.228
312.407
312.579
312.742
312.897
313.043
313.18
313.308
313.426
313.535
313.634
313.723
313.802
313.87
313.928
313.976
314.013
314.039
314.054
314.058
314.052
314.036
314.008
313.971
313.923
313.866
313.799
313.723
313.637
313.543
313.441
313.33
313.213
313.088
312.956
312.818
312.675
312.525
312.371
312.212
312.049
311.882
311.712
311.538
311.361
311.182
311
310.815
310.628
310.439
310.247
310.053
309.855
309.654
309.45
309.242
309.028
308.808
308.582
308.347
308.102
307.844
307.572
307.282
306.971
306.632
306.259
305.843
305.372
304.826
304.179
303.388
302.378
301.012
301.13
302.727
303.961
304.966
305.816
306.553
307.207
307.796
308.334
308.829
309.29
309.723
310.13
310.517
310.885
311.237
311.574
311.898
312.209
312.509
312.798
313.077
313.346
313.604
313.853
314.093
314.322
314.542
314.752
314.951
315.14
315.318
315.486
315.642
315.787
315.92
316.041
316.15
316.246
316.33
316.401
316.458
316.503
316.535
316.554
316.559
316.552
316.532
316.498
316.453
316.395
316.324
316.242
316.149
316.045
315.93
315.805
315.67
315.526
315.373
315.212
315.044
314.868
314.686
314.497
314.303
314.104
313.9
313.692
313.48
313.264
313.044
312.822
312.597
312.368
312.137
311.903
311.665
311.425
311.18
310.931
310.676
310.416
310.149
309.873
309.587
309.289
308.977
308.648
308.297
307.921
307.513
307.066
306.57
306.011
305.37
304.617
303.711
302.577
301.08
301.195
302.922
304.279
305.403
306.365
307.207
307.959
308.64
309.264
309.842
310.38
310.887
311.365
311.818
312.251
312.665
313.061
313.443
313.81
314.163
314.504
314.833
315.15
315.455
315.749
316.031
316.302
316.562
316.809
317.045
317.268
317.479
317.676
317.861
318.032
318.189
318.332
318.461
318.575
318.674
318.757
318.826
318.879
318.916
318.939
318.945
318.936
318.912
318.873
318.819
318.75
318.667
318.571
318.46
318.337
318.201
318.053
317.894
317.724
317.544
317.353
317.154
316.947
316.731
316.509
316.279
316.044
315.803
315.557
315.306
315.051
314.792
314.53
314.263
313.994
313.721
313.444
313.164
312.88
312.592
312.298
311.998
311.692
311.377
311.053
310.717
310.368
310.002
309.616
309.207
308.769
308.295
307.778
307.207
306.567
305.838
304.992
303.985
302.744
301.136
301.252
303.093
304.562
305.793
306.856
307.796
308.64
309.409
310.116
310.772
311.386
311.963
312.51
313.03
313.526
314
314.456
314.894
315.316
315.723
316.115
316.493
316.858
317.21
317.548
317.874
318.186
318.485
318.77
319.042
319.299
319.542
319.77
319.983
320.181
320.362
320.527
320.675
320.807
320.921
321.017
321.096
321.158
321.201
321.227
321.234
321.224
321.196
321.151
321.089
321.01
320.914
320.802
320.675
320.533
320.376
320.206
320.022
319.826
319.617
319.398
319.168
318.929
318.681
318.424
318.159
317.888
317.61
317.326
317.037
316.743
316.444
316.141
315.835
315.524
315.209
314.891
314.568
314.241
313.909
313.571
313.227
312.875
312.513
312.141
311.757
311.357
310.938
310.498
310.032
309.534
308.998
308.414
307.772
307.057
306.249
305.318
304.222
302.889
301.184
301.304
303.247
304.817
306.145
307.303
308.334
309.264
310.116
310.902
311.634
312.32
312.967
313.581
314.165
314.724
315.258
315.772
316.266
316.742
317.202
317.645
318.073
318.485
318.883
319.266
319.634
319.988
320.326
320.649
320.957
321.248
321.523
321.782
322.023
322.246
322.452
322.639
322.807
322.956
323.085
323.195
323.284
323.354
323.403
323.432
323.441
323.429
323.398
323.347
323.276
323.186
323.078
322.951
322.807
322.646
322.468
322.275
322.067
321.845
321.609
321.36
321.1
320.829
320.547
320.256
319.957
319.649
319.334
319.013
318.685
318.352
318.014
317.671
317.324
316.972
316.617
316.256
315.892
315.522
315.146
314.765
314.376
313.979
313.572
313.153
312.72
312.27
311.801
311.308
310.787
310.232
309.636
308.989
308.281
307.496
306.615
305.607
304.431
303.015
301.227
301.351
303.388
305.049
306.468
307.714
308.829
309.842
310.772
311.634
312.439
313.195
313.91
314.589
315.237
315.856
316.45
317.02
317.57
318.1
318.612
319.105
319.582
320.042
320.485
320.913
321.323
321.718
322.096
322.456
322.8
323.125
323.432
323.721
323.99
324.24
324.469
324.678
324.866
325.032
325.177
325.299
325.4
325.477
325.532
325.565
325.574
325.562
325.527
325.469
325.391
325.29
325.169
325.028
324.867
324.687
324.489
324.273
324.04
323.792
323.528
323.25
322.96
322.657
322.342
322.017
321.682
321.339
320.987
320.628
320.262
319.89
319.513
319.13
318.743
318.35
317.953
317.552
317.145
316.733
316.315
315.89
315.457
315.015
314.563
314.098
313.618
313.12
312.601
312.057
311.483
310.873
310.219
309.514
308.743
307.894
306.945
305.868
304.619
303.129
301.265
301.394
303.517
305.265
306.767
308.095
309.29
310.38
311.386
312.32
313.195
314.02
314.801
315.543
316.252
316.931
317.583
318.21
318.815
319.398
319.961
320.504
321.029
321.536
322.025
322.496
322.95
323.385
323.802
324.2
324.579
324.938
325.277
325.596
325.893
326.169
326.423
326.653
326.861
327.045
327.204
327.34
327.451
327.536
327.597
327.633
327.644
327.63
327.591
327.528
327.441
327.331
327.197
327.041
326.863
326.664
326.445
326.206
325.949
325.675
325.384
325.077
324.756
324.421
324.073
323.714
323.345
322.965
322.577
322.18
321.776
321.366
320.949
320.527
320.099
319.666
319.228
318.785
318.337
317.883
317.422
316.955
316.479
315.993
315.496
314.986
314.459
313.915
313.347
312.754
312.129
311.466
310.758
309.996
309.168
308.258
307.246
306.104
304.79
303.232
301.299
301.435
303.638
305.465
307.047
308.452
309.723
310.887
311.963
312.967
313.91
314.801
315.645
316.45
317.219
317.957
318.665
319.348
320.006
320.642
321.256
321.849
322.422
322.975
323.509
324.024
324.519
324.995
325.451
325.886
326.301
326.694
327.065
327.414
327.739
328.041
328.318
328.571
328.798
328.999
329.174
329.323
329.444
329.538
329.605
329.644
329.656
329.641
329.598
329.529
329.434
329.313
329.167
328.996
328.801
328.583
328.343
328.082
327.801
327.501
327.182
326.846
326.495
326.128
325.748
325.355
324.95
324.535
324.11
323.676
323.234
322.785
322.329
321.867
321.4
320.927
320.448
319.964
319.475
318.979
318.476
317.966
317.448
316.919
316.378
315.823
315.252
314.661
314.047
313.406
312.732
312.018
311.259
310.443
309.559
308.593
307.523
306.321
304.946
303.326
301.331
301.473
303.752
305.654
307.31
308.788
310.13
311.365
312.51
313.581
314.589
315.543
316.45
317.315
318.143
318.938
319.703
320.44
321.151
321.838
322.502
323.144
323.765
324.364
324.943
325.501
326.038
326.554
327.049
327.521
327.971
328.398
328.801
329.179
329.532
329.86
330.162
330.436
330.683
330.901
331.091
331.252
331.384
331.486
331.559
331.602
331.615
331.598
331.553
331.478
331.374
331.243
331.084
330.898
330.687
330.45
330.19
329.906
329.601
329.274
328.928
328.564
328.182
327.784
327.371
326.944
326.504
326.054
325.592
325.121
324.641
324.154
323.659
323.158
322.651
322.138
321.619
321.094
320.564
320.027
319.483
318.931
318.37
317.799
317.215
316.617
316.002
315.366
314.707
314.019
313.297
312.535
311.726
310.859
309.924
308.904
307.779
306.522
305.09
303.413
301.359
301.509
303.859
305.833
307.559
309.106
310.517
311.818
313.03
314.165
315.237
316.252
317.219
318.143
319.029
319.88
320.699
321.49
322.253
322.991
323.705
324.395
325.063
325.708
326.331
326.932
327.511
328.067
328.599
329.109
329.593
330.054
330.488
330.896
331.278
331.631
331.956
332.252
332.519
332.755
332.96
333.134
333.276
333.386
333.465
333.511
333.525
333.508
333.458
333.377
333.266
333.124
332.953
332.753
332.524
332.269
331.988
331.682
331.353
331
330.627
330.233
329.821
329.392
328.946
328.486
328.012
327.525
327.028
326.52
326.002
325.477
324.943
324.403
323.857
323.304
322.745
322.18
321.609
321.031
320.446
319.853
319.251
318.638
318.012
317.371
316.713
316.034
315.33
314.597
313.83
313.021
312.164
311.249
310.264
309.194
308.018
306.709
305.224
303.493
301.386
301.543
303.961
306.002
307.795
309.409
310.885
312.251
313.526
314.724
315.856
316.931
317.957
318.938
319.88
320.786
321.659
322.502
323.317
324.105
324.867
325.605
326.32
327.01
327.677
328.32
328.94
329.535
330.106
330.652
331.172
331.665
332.131
332.569
332.978
333.357
333.706
334.023
334.309
334.562
334.782
334.969
335.122
335.241
335.325
335.375
335.39
335.371
335.318
335.232
335.112
334.96
334.776
334.562
334.317
334.043
333.742
333.413
333.06
332.682
332.281
331.859
331.417
330.956
330.478
329.984
329.476
328.954
328.42
327.875
327.321
326.757
326.186
325.607
325.021
324.428
323.83
323.225
322.614
321.996
321.371
320.737
320.094
319.44
318.773
318.09
317.39
316.668
315.921
315.145
314.333
313.48
312.578
311.617
310.585
309.467
308.242
306.884
305.349
303.569
301.412
301.575
304.058
306.164
308.021
309.698
311.237
312.665
314
315.258
316.45
317.583
318.665
319.703
320.699
321.659
322.585
323.479
324.344
325.182
325.993
326.778
327.538
328.273
328.983
329.668
330.329
330.963
331.572
332.154
332.708
333.234
333.732
334.199
334.635
335.04
335.412
335.751
336.056
336.327
336.562
336.762
336.925
337.052
337.142
337.195
337.211
337.191
337.135
337.043
336.915
336.753
336.557
336.328
336.066
335.774
335.452
335.102
334.724
334.321
333.893
333.443
332.971
332.479
331.969
331.441
330.899
330.342
329.772
329.191
328.599
327.998
327.388
326.771
326.146
325.515
324.877
324.233
323.583
322.925
322.26
321.586
320.903
320.208
319.5
318.777
318.036
317.273
316.484
315.665
314.811
313.915
312.969
311.964
310.887
309.723
308.453
307.049
305.467
303.64
301.435
301.606
304.151
306.318
308.237
309.975
311.574
313.061
314.456
315.772
317.02
318.21
319.348
320.44
321.49
322.502
323.479
324.424
325.339
326.225
327.083
327.915
328.72
329.499
330.252
330.979
331.679
332.353
332.999
333.617
334.205
334.764
335.292
335.788
336.252
336.682
337.078
337.438
337.763
338.05
338.3
338.512
338.686
338.821
338.917
338.974
338.991
338.97
338.91
338.813
338.677
338.505
338.296
338.053
337.775
337.465
337.123
336.75
336.349
335.92
335.466
334.987
334.485
333.962
333.42
332.86
332.283
331.692
331.086
330.469
329.84
329.202
328.555
327.899
327.236
326.566
325.89
325.207
324.517
323.82
323.116
322.403
321.68
320.946
320.198
319.435
318.653
317.85
317.021
316.162
315.266
314.328
313.34
312.293
311.173
309.966
308.653
307.204
305.578
303.706
301.458
301.636
304.24
306.466
308.444
310.241
311.898
313.443
314.894
316.266
317.57
318.815
320.006
321.151
322.253
323.317
324.344
325.339
326.302
327.236
328.141
329.018
329.867
330.69
331.485
332.253
332.993
333.705
334.388
335.041
335.664
336.255
336.814
337.339
337.83
338.285
338.704
339.085
339.429
339.733
339.998
340.223
340.407
340.55
340.652
340.712
340.731
340.709
340.645
340.542
340.399
340.216
339.996
339.738
339.444
339.116
338.754
338.359
337.935
337.481
337
336.493
335.962
335.408
334.834
334.241
333.631
333.005
332.364
331.711
331.046
330.371
329.686
328.993
328.292
327.584
326.869
326.148
325.419
324.684
323.941
323.189
322.428
321.655
320.868
320.066
319.245
318.403
317.534
316.635
315.7
314.722
313.694
312.605
311.445
310.197
308.842
307.352
305.684
303.77
301.479
301.664
304.326
306.609
308.643
310.496
312.209
313.81
315.316
316.742
318.1
319.398
320.642
321.838
322.991
324.105
325.182
326.225
327.236
328.216
329.167
330.089
330.982
331.847
332.684
333.493
334.272
335.022
335.741
336.429
337.086
337.709
338.298
338.851
339.369
339.849
340.291
340.693
341.056
341.377
341.657
341.894
342.088
342.239
342.346
342.41
342.43
342.407
342.341
342.232
342.081
341.889
341.656
341.384
341.074
340.728
340.346
339.93
339.482
339.003
338.496
337.961
337.401
336.818
336.212
335.587
334.943
334.283
333.608
332.919
332.218
331.506
330.784
330.054
329.316
328.57
327.817
327.058
326.292
325.518
324.737
323.947
323.148
322.337
321.512
320.672
319.813
318.932
318.026
317.088
316.115
315.098
314.031
312.904
311.704
310.417
309.022
307.492
305.784
303.83
301.499
301.692
304.408
306.746
308.835
310.742
312.509
314.163
315.723
317.202
318.612
319.961
321.256
322.502
323.705
324.867
325.993
327.083
328.141
329.167
330.162
331.128
332.065
332.972
333.85
334.698
335.516
336.303
337.058
337.781
338.471
339.125
339.744
340.326
340.87
341.375
341.839
342.262
342.644
342.981
343.276
343.525
343.73
343.889
344.002
344.069
344.09
344.066
343.997
343.882
343.724
343.522
343.277
342.992
342.666
342.302
341.9
341.463
340.992
340.489
339.955
339.393
338.804
338.191
337.554
336.897
336.22
335.526
334.817
334.093
333.356
332.608
331.85
331.083
330.308
329.525
328.735
327.939
327.135
326.324
325.506
324.679
323.842
322.994
322.132
321.255
320.359
319.441
318.497
317.522
316.512
315.458
314.353
313.188
311.951
310.626
309.193
307.625
305.879
303.887
301.518
301.718
304.487
306.878
309.019
310.979
312.798
314.504
316.115
317.645
319.105
320.504
321.849
323.144
324.395
325.605
326.778
327.915
329.018
330.089
331.128
332.137
333.116
334.064
334.982
335.87
336.726
337.549
338.34
339.097
339.819
340.505
341.153
341.763
342.333
342.862
343.349
343.793
344.192
344.547
344.855
345.117
345.331
345.498
345.617
345.688
345.711
345.685
345.613
345.493
345.327
345.115
344.859
344.56
344.219
343.837
343.416
342.958
342.464
341.937
341.378
340.788
340.171
339.528
338.861
338.172
337.463
336.736
335.992
335.234
334.462
333.679
332.885
332.082
331.27
330.451
329.625
328.791
327.951
327.104
326.248
325.385
324.511
323.627
322.729
321.815
320.883
319.929
318.949
317.939
316.892
315.802
314.661
313.46
312.187
310.826
309.357
307.752
305.97
303.942
301.536
301.744
304.564
307.005
309.197
311.208
313.077
314.833
316.493
318.073
319.582
321.029
322.422
323.765
325.063
326.32
327.538
328.72
329.867
330.982
332.065
333.116
334.136
335.125
336.082
337.008
337.901
338.761
339.587
340.377
341.131
341.847
342.524
343.162
343.757
344.31
344.819
345.283
345.701
346.072
346.394
346.668
346.893
347.068
347.192
347.266
347.29
347.264
347.188
347.063
346.89
346.669
346.402
346.089
345.732
345.333
344.893
344.415
343.899
343.347
342.763
342.147
341.502
340.83
340.133
339.413
338.672
337.912
337.135
336.342
335.536
334.718
333.889
333.05
332.203
331.348
330.485
329.616
328.74
327.856
326.966
326.066
325.157
324.237
323.304
322.355
321.388
320.399
319.384
318.338
317.257
316.132
314.957
313.721
312.413
311.017
309.513
307.874
306.057
303.994
301.553
301.768
304.637
307.128
309.369
311.428
313.346
315.15
316.858
318.485
320.042
321.536
322.975
324.364
325.708
327.01
328.273
329.499
330.69
331.847
332.972
334.064
335.125
336.153
337.149
338.112
339.042
339.937
340.797
341.62
342.406
343.152
343.858
344.522
345.143
345.719
346.25
346.734
347.17
347.556
347.893
348.179
348.413
348.595
348.726
348.803
348.828
348.801
348.723
348.593
348.412
348.182
347.903
347.577
347.206
346.79
346.331
345.832
345.294
344.72
344.11
343.468
342.796
342.095
341.368
340.618
339.845
339.053
338.243
337.418
336.578
335.725
334.862
333.988
333.106
332.216
331.318
330.413
329.502
328.584
327.658
326.723
325.78
324.825
323.857
322.874
321.873
320.85
319.801
318.722
317.606
316.448
315.24
313.97
312.629
311.2
309.663
307.99
306.14
304.044
301.57
301.792
304.708
307.246
309.534
311.64
313.604
315.455
317.21
318.883
320.485
322.025
323.509
324.943
326.331
327.677
328.983
330.252
331.485
332.684
333.85
334.982
336.082
337.149
338.183
339.183
340.148
341.078
341.971
342.826
343.643
344.418
345.152
345.843
346.488
347.088
347.64
348.143
348.597
348.999
349.349
349.647
349.891
350.081
350.216
350.297
350.324
350.296
350.215
350.08
349.892
349.653
349.363
349.024
348.638
348.206
347.729
347.21
346.651
346.053
345.419
344.751
344.052
343.324
342.568
341.787
340.984
340.161
339.319
338.46
337.587
336.701
335.804
334.896
333.98
333.055
332.123
331.184
330.238
329.286
328.326
327.357
326.38
325.391
324.39
323.373
322.339
321.283
320.202
319.09
317.942
316.752
315.511
314.209
312.836
311.375
309.806
308.102
306.22
304.091
301.586
301.814
304.776
307.359
309.692
311.844
313.853
315.749
317.548
319.266
320.913
322.496
324.024
325.501
326.932
328.32
329.668
330.979
332.253
333.493
334.698
335.87
337.008
338.112
339.183
340.219
341.219
342.182
343.108
343.995
344.841
345.645
346.406
347.123
347.792
348.415
348.988
349.51
349.981
350.398
350.762
351.071
351.325
351.522
351.663
351.748
351.775
351.747
351.662
351.523
351.328
351.08
350.78
350.429
350.028
349.579
349.085
348.546
347.966
347.346
346.688
345.996
345.27
344.514
343.73
342.92
342.087
341.233
340.36
339.469
338.564
337.645
336.714
335.774
334.824
333.866
332.9
331.928
330.948
329.962
328.969
327.968
326.957
325.936
324.902
323.854
322.787
321.699
320.586
319.443
318.264
317.042
315.77
314.438
313.034
311.542
309.943
308.208
306.296
304.137
301.601
301.836
304.842
307.468
309.845
312.04
314.093
316.031
317.874
319.634
321.323
322.95
324.519
326.038
327.511
328.94
330.329
331.679
332.993
334.272
335.516
336.726
337.901
339.042
340.148
341.219
342.253
343.249
344.206
345.124
345.999
346.832
347.619
348.361
349.054
349.698
350.291
350.833
351.32
351.753
352.13
352.45
352.713
352.918
353.064
353.152
353.181
353.152
353.065
352.92
352.719
352.463
352.152
351.788
351.374
350.909
350.398
349.84
349.239
348.598
347.917
347.2
346.449
345.666
344.854
344.016
343.154
342.269
341.365
340.444
339.507
338.556
337.594
336.62
335.638
334.647
333.649
332.644
331.632
330.614
329.588
328.555
327.512
326.46
325.394
324.314
323.217
322.098
320.955
319.781
318.572
317.32
316.019
314.657
313.223
311.702
310.074
308.31
306.368
304.18
301.616
301.857
304.904
307.573
309.991
312.228
314.322
316.302
318.186
319.988
321.718
323.385
324.995
326.554
328.067
329.535
330.963
332.353
333.705
335.022
336.303
337.549
338.761
339.937
341.078
342.182
343.249
344.277
345.265
346.212
347.116
347.976
348.789
349.555
350.272
350.937
351.55
352.109
352.613
353.061
353.45
353.782
354.053
354.265
354.417
354.508
354.539
354.509
354.419
354.27
354.063
353.798
353.477
353.102
352.674
352.194
351.666
351.09
350.469
349.806
349.103
348.362
347.586
346.778
345.939
345.073
344.182
343.269
342.335
341.384
340.416
339.434
338.441
337.436
336.422
335.399
334.37
333.333
332.29
331.24
330.183
329.119
328.045
326.962
325.866
324.756
323.629
322.481
321.308
320.105
318.867
317.587
316.256
314.866
313.404
311.855
310.199
308.407
306.438
304.222
301.629
301.877
304.965
307.673
310.131
312.407
314.542
316.562
318.485
320.326
322.096
323.802
325.451
327.049
328.599
330.106
331.572
332.999
334.388
335.741
337.058
338.34
339.587
340.797
341.971
343.108
344.206
345.265
346.283
347.259
348.19
349.076
349.915
350.704
351.443
352.129
352.762
353.338
353.858
354.32
354.722
355.064
355.345
355.564
355.72
355.815
355.846
355.816
355.724
355.571
355.357
355.085
354.754
354.367
353.926
353.432
352.887
352.293
351.653
350.97
350.245
349.481
348.681
347.848
346.983
346.09
345.172
344.231
343.268
342.287
341.29
340.278
339.254
338.219
337.175
336.122
335.061
333.994
332.921
331.84
330.753
329.659
328.556
327.443
326.318
325.179
324.023
322.846
321.645
320.414
319.148
317.841
316.483
315.066
313.577
312.001
310.318
308.499
306.504
304.262
301.643
301.896
305.022
307.768
310.265
312.579
314.752
316.809
318.77
320.649
322.456
324.2
325.886
327.521
329.109
330.652
332.154
333.617
335.041
336.429
337.781
339.097
340.377
341.62
342.826
343.995
345.124
346.212
347.259
348.262
349.22
350.131
350.994
351.806
352.567
353.273
353.924
354.518
355.053
355.528
355.942
356.295
356.584
356.81
356.971
357.069
357.102
357.071
356.977
356.819
356.6
356.32
355.98
355.582
355.128
354.62
354.059
353.449
352.79
352.087
351.341
350.555
349.732
348.874
347.985
347.066
346.121
345.153
344.163
343.154
342.128
341.087
340.034
338.97
337.896
336.813
335.723
334.627
333.524
332.415
331.299
330.175
329.044
327.902
326.75
325.583
324.399
323.195
321.967
320.709
319.417
318.083
316.699
315.256
313.741
312.14
310.431
308.587
306.567
304.299
301.655
301.914
305.076
307.859
310.392
312.742
314.951
317.045
319.042
320.957
322.8
324.579
326.301
327.971
329.593
331.172
332.708
334.205
335.664
337.086
338.471
339.819
341.131
342.406
343.643
344.841
345.999
347.116
348.19
349.22
350.204
351.139
352.025
352.86
353.64
354.366
355.035
355.645
356.195
356.684
357.11
357.472
357.769
358.002
358.168
358.269
358.303
358.272
358.175
358.014
357.789
357.502
357.153
356.745
356.279
355.757
355.181
354.554
353.878
353.156
352.389
351.582
350.737
349.856
348.943
347.999
347.029
346.034
345.017
343.981
342.928
341.86
340.779
339.686
338.584
337.473
336.355
335.23
334.099
332.962
331.818
330.667
329.509
328.34
327.16
325.967
324.757
323.527
322.273
320.99
319.672
318.313
316.904
315.436
313.897
312.272
310.539
308.671
306.626
304.335
301.667
301.932
305.128
307.945
310.512
312.897
315.14
317.268
319.299
321.248
323.125
324.938
326.694
328.398
330.054
331.665
333.234
334.764
336.255
337.709
339.125
340.505
341.847
343.152
344.418
345.645
346.832
347.976
349.076
350.131
351.139
352.098
353.007
353.862
354.663
355.407
356.092
356.718
357.283
357.784
358.221
358.593
358.898
359.137
359.308
359.412
359.448
359.416
359.317
359.153
358.922
358.628
358.271
357.852
357.375
356.84
356.25
355.607
354.914
354.174
353.388
352.561
351.694
350.791
349.855
348.888
347.893
346.873
345.831
344.769
343.69
342.595
341.487
340.368
339.239
338.101
336.956
335.804
334.646
333.482
332.312
331.135
329.95
328.755
327.55
326.331
325.096
323.841
322.563
321.255
319.914
318.531
317.099
315.607
314.045
312.396
310.641
308.75
306.683
304.369
301.678
301.948
305.177
308.026
310.626
313.043
315.318
317.479
319.542
321.523
323.432
325.277
327.065
328.801
330.488
332.131
333.732
335.292
336.814
338.298
339.744
341.153
342.524
343.858
345.152
346.406
347.619
348.789
349.915
350.994
352.025
353.007
353.936
354.811
355.631
356.392
357.095
357.735
358.313
358.827
359.275
359.656
359.969
360.214
360.389
360.496
360.533
360.501
360.4
360.232
359.997
359.696
359.331
358.903
358.414
357.867
357.263
356.606
355.897
355.139
354.336
353.489
352.602
351.678
350.72
349.73
348.712
347.669
346.603
345.516
344.412
343.292
342.158
341.013
339.859
338.695
337.524
336.347
335.164
333.974
332.779
331.577
330.367
329.148
327.919
326.676
325.417
324.138
322.836
321.506
320.142
318.736
317.282
315.769
314.185
312.514
310.737
308.825
306.736
304.401
301.689
301.963
305.222
308.102
310.732
313.18
315.486
317.676
319.77
321.782
323.721
325.596
327.414
329.179
330.896
332.569
334.199
335.788
337.339
338.851
340.326
341.763
343.162
344.522
345.843
347.123
348.361
349.555
350.704
351.806
352.86
353.862
354.811
355.706
356.543
357.321
358.039
358.694
359.285
359.81
360.268
360.658
360.978
361.229
361.409
361.518
361.556
361.524
361.422
361.25
361.011
360.703
360.331
359.894
359.395
358.836
358.22
357.548
356.824
356.05
355.229
354.364
353.458
352.515
351.536
350.525
349.485
348.419
347.33
346.22
345.092
343.948
342.791
341.622
340.443
339.255
338.06
336.859
335.651
334.438
333.219
331.993
330.76
329.518
328.265
327
325.718
324.418
323.094
321.742
320.356
318.93
317.454
315.92
314.316
312.625
310.827
308.895
306.786
304.431
301.699
301.977
305.265
308.173
310.832
313.308
315.642
317.861
319.983
322.023
323.99
325.893
327.739
329.532
331.278
332.978
334.635
336.252
337.83
339.369
340.87
342.333
343.757
345.143
346.488
347.792
349.054
350.272
351.443
352.567
353.64
354.663
355.631
356.543
357.397
358.191
358.924
359.592
360.195
360.731
361.199
361.597
361.924
362.18
362.364
362.476
362.516
362.484
362.38
362.205
361.961
361.648
361.268
360.823
360.315
359.745
359.117
358.432
357.694
356.905
356.067
355.185
354.262
353.299
352.301
351.27
350.21
349.123
348.012
346.88
345.73
344.564
343.384
342.192
340.99
339.78
338.562
337.338
336.108
334.872
333.63
332.382
331.127
329.864
328.589
327.303
326
324.679
323.335
321.963
320.557
319.11
317.615
316.062
314.438
312.728
310.911
308.96
306.833
304.459
301.708
301.99
305.304
308.239
310.924
313.426
315.787
318.032
320.181
322.246
324.24
326.169
328.041
329.86
331.631
333.357
335.04
336.682
338.285
339.849
341.375
342.862
344.31
345.719
347.088
348.415
349.698
350.937
352.129
353.273
354.366
355.407
356.392
357.321
358.191
359
359.746
360.427
361.042
361.588
362.064
362.47
362.804
363.065
363.253
363.368
363.409
363.377
363.271
363.094
362.846
362.528
362.142
361.689
361.171
360.592
359.952
359.255
358.504
357.7
356.848
355.95
355.01
354.03
353.013
351.964
350.884
349.778
348.647
347.495
346.324
345.137
343.936
342.723
341.5
340.268
339.029
337.784
336.533
335.276
334.013
332.745
331.469
330.185
328.891
327.585
326.263
324.922
323.559
322.168
320.743
319.278
317.765
316.194
314.552
312.824
310.99
309.021
306.876
304.485
301.717
302.003
305.341
308.3
311.009
313.535
315.92
318.189
320.362
322.452
324.469
326.423
328.318
330.162
331.956
333.706
335.412
337.078
338.704
340.291
341.839
343.349
344.819
346.25
347.64
348.988
350.291
351.55
352.762
353.924
355.035
356.092
357.095
358.039
358.924
359.746
360.505
361.197
361.822
362.378
362.863
363.276
363.616
363.882
364.074
364.191
364.233
364.201
364.095
363.915
363.663
363.34
362.948
362.488
361.963
361.374
360.724
360.016
359.252
358.435
357.569
356.657
355.701
354.705
353.672
352.605
351.508
350.383
349.234
348.063
346.873
345.667
344.446
343.214
341.971
340.72
339.461
338.196
336.925
335.649
334.367
333.079
331.785
330.482
329.17
327.845
326.505
325.146
323.765
322.357
320.915
319.433
317.903
316.315
314.656
312.912
311.062
309.077
306.916
304.509
301.725
302.014
305.374
308.355
311.086
313.634
316.041
318.332
320.527
322.639
324.678
326.653
328.571
330.436
332.252
334.023
335.751
337.438
339.085
340.693
342.262
343.793
345.283
346.734
348.143
349.51
350.833
352.109
353.338
354.518
355.645
356.718
357.735
358.694
359.592
360.427
361.197
361.901
362.536
363.1
363.593
364.013
364.358
364.629
364.824
364.944
364.987
364.955
364.847
364.666
364.411
364.083
363.686
363.219
362.686
362.089
361.43
360.711
359.936
359.108
358.229
357.303
356.333
355.323
354.274
353.192
352.079
350.937
349.771
348.583
347.376
346.151
344.913
343.663
342.402
341.133
339.856
338.573
337.284
335.99
334.691
333.386
332.074
330.754
329.424
328.083
326.726
325.351
323.954
322.53
321.072
319.575
318.029
316.426
314.752
312.993
311.128
309.129
306.953
304.531
301.732
302.023
305.403
308.404
311.155
313.723
316.15
318.461
320.675
322.807
324.866
326.861
328.798
330.683
332.519
334.309
336.056
337.763
339.429
341.056
342.644