/*--------------------------------*- C++ -*----------------------------------*\
  =========                 |
  \\      /  F ield         | OpenFOAM: The Open Source CFD Toolbox
   \\    /   O peration     | Website:  https://openfoam.org
    \\  /    A nd           | Version:  9
     \\/     M anipulation  |
\*---------------------------------------------------------------------------*/
FoamFile
{
    format      ascii;
    class       volScalarField;
    location    "0.35";
    object      gradTy;
}
// * * * * * * * * * * * * * * * * * * * * * * * * * * * * * * * * * * * * * //

dimensions      [0 -1 0 1 0 0 0];

internalField   nonuniform List<scalar> 
200000
(
5100.79
10268.4
13481.7
15773.7
17557.4
19026.2
20283.1
21389
22382.4
23289.4
24128.3
24912.3
25651.5
26353.4
27023.8
27667.3
28287.4
28886.7
29467.3
30030.8
30578.3
31110.4
31627.6
32130
32617.4
33089.6
33546.1
33986.3
34409.4
34814.7
35201.1
35567.8
35913.8
36238.1
36539.7
36817.6
37071
37298.9
37500.5
37675.2
37822.3
37941.3
38031.8
38093.4
38126
38129.6
38104.3
38050.2
37967.8
37857.5
37719.9
37555.7
37365.9
37151.4
36913.3
36652.6
36370.7
36068.9
35748.4
35410.8
35057.4
34689.7
34309.2
33917.3
33515.4
33104.9
32687.1
32263.3
31834.6
31402.2
30966.8
30529.5
30090.8
29651.3
29211.4
28771.2
28330.7
27889.7
27447.6
27003.7
26557
26106
25648.9
25183.4
24706.8
24215.7
23705.8
23171.9
22607.6
22004.5
21352.1
20636.5
19838.7
18932.3
17877.9
16614.4
15038.1
12955.1
9951.94
4995.23
2375.05
6005.88
8704.63
10791.6
12479.8
13898.1
15125.6
16213.1
17194.4
18093.1
18926
19705.8
20441.9
21141.4
21810.2
22452.4
23071.5
23670.1
24250.3
24813.5
25360.8
25892.9
26410.2
26912.6
27400.3
27872.7
28329.4
28769.9
29193.3
29598.9
29985.6
30352.6
30699
31023.6
31325.4
31603.7
31857.3
32085.5
32287.4
32462.3
32609.6
32728.7
32819.3
32881.1
32913.8
32917.4
32892.1
32838
32755.5
32645.1
32507.4
32343.2
32153.2
31938.5
31700.1
31439.2
31157.1
30854.9
30534.1
30196.2
29842.5
29474.4
29093.5
28701.2
28299
27888.1
27469.9
27045.7
26616.6
26183.8
25748.1
25310.4
24871.4
24431.7
23991.5
23551.1
23110.5
22669.4
22227.4
21783.6
21337.1
20886.5
20429.9
19965.2
19489.7
18999.9
18491.9
17960.5
17399.4
16800.7
16154.3
15447.2
14661.7
13773.8
12748.9
11536
10055.4
8177.6
5689.2
2269.41
1451.84
4053.5
6237.54
8060.96
9605.93
10941.1
12117.4
13171.7
14130.5
15013.5
15835.3
16606.9
17336.9
18032
18697.4
19337.1
19954.4
20551.8
21131.1
21693.8
22240.8
22772.8
23290.1
23792.8
24280.7
24753.6
25210.9
25651.9
26075.9
26482
26869.4
27237.1
27584
27909.2
28211.7
28490.5
28744.7
28973.4
29175.8
29351.1
29498.8
29618.3
29709.2
29771.1
29804
29807.7
29782.4
29728.3
29645.8
29535.2
29397.3
29232.8
29042.5
28827.4
28588.6
28327.2
28044.5
27741.7
27420.4
27081.7
26727.3
26358.6
25976.9
25583.9
25180.8
24769.2
24350.2
23925.3
23495.5
23061.9
22625.5
22187.2
21747.6
21307.3
20866.7
20425.9
19985.1
19543.9
19101.8
18658.3
18212.3
17762.3
17306.8
16843.6
16370.1
15883.1
15378.6
14851.9
14297.1
13706.9
13072
12380.8
11618.1
10763.6
9790.34
8660.85
7323.71
5709.76
3736.37
1346.05
1044.64
3031.06
4819.77
6399.44
7793.16
9032.06
10145.2
11156.6
12085.5
12947.2
13753.5
14513.7
15235.2
15923.9
16584.5
17220.7
17835.4
18430.8
19008.9
19570.7
20117.3
20649.2
21166.6
21669.7
22158.1
22631.6
23089.6
23531.4
23956.3
24363.3
24751.6
25120.2
25468.1
25794.2
26097.6
26377.3
26632.3
26861.7
27064.8
27240.8
27389
27509
27600.3
27662.5
27695.7
27699.5
27674.3
27620.2
27537.5
27426.7
27288.5
27123.6
26932.8
26717.2
26477.7
26215.6
25932.1
25628.5
25306.2
24966.6
24611.2
24241.4
23858.6
23464.5
23060.3
22647.5
22227.4
21801.3
21370.4
20935.8
20498.4
20059.1
19618.6
19177.5
18736.3
18295
17853.7
17412.4
16970.4
16527.2
16081.8
15632.9
15179
14717.9
14247.4
13764.2
13264.9
12744.9
12199
11620.6
11001.6
10332.2
9599.69
8788.54
7878.9
6846.1
5660.65
4290.89
2713.26
938.629
824.073
2428.37
3930.54
5308.5
6563.16
7706.12
8752.26
9716.2
10611
11447.6
12235.3
12981.5
13692.6
14373.4
15028
15659.7
16271.1
16864.3
17440.7
18001.5
18547.5
19079.3
19596.9
20100.3
20589.4
21063.7
21522.6
21965.5
22391.5
22799.7
23189.2
23559
23908.1
24235.4
24540
24820.7
25076.8
25307.2
25511.2
25688
25837
25957.6
26049.4
26112.1
26145.5
26149.6
26124.4
26070.3
25987.4
25876.4
25737.8
25572.3
25380.9
25164.6
24924.3
24661.2
24376.7
24072
23748.5
23407.7
23050.9
22679.8
22295.6
21900
21494.4
21080.1
20658.6
20231
19798.7
19362.7
18924
18483.4
18041.8
17599.7
17157.6
16715.6
16273.9
15832.2
15390.3
14947.5
14503
14055.5
13603.5
13145.2
12678.3
12200.1
11707.2
11195.6
10660.6
10096.6
9496.75
8852.85
8155.14
7392
6549.86
5613.57
4567.72
3400.24
2109.72
717.779
687.001
2038.7
3332.85
4550.2
5684.84
6739.29
7720.25
8635.98
9494.81
10304.4
11071.7
11802.4
12501.6
13173.4
13821.1
14447.6
15055.2
15645.5
16220
16779.6
17325
17856.6
18374.4
18878.4
19368.2
19843.5
20303.5
20747.6
21174.9
21584.6
21975.5
22346.8
22697.3
23026.1
23332
23614.2
23871.5
24103.1
24308.2
24486
24635.9
24757.3
24849.7
24912.9
24946.7
24951.1
24926
24871.8
24788.8
24677.4
24538.3
24372.3
24180.1
23962.9
23721.6
23457.5
23171.7
22865.7
22540.8
22198.4
21840.1
21467.3
21081.4
20684.1
20276.7
19860.7
19437.3
19008.1
18574
18136.3
17696
17254
16811
16367.7
15924.5
15481.7
15039.4
14597.5
14155.6
13713.3
13269.8
12823.9
12374.2
11919.2
11456.6
10984.1
10498.6
9996.63
9474.12
8926.24
8347.4
7731.1
7069.96
6355.67
5579.36
4732.24
3807.07
2800.87
1719.04
580.372
593.913
1768.9
2908.97
3999.5
5033.47
6009.58
6930.16
7799.5
8622.67
9404.83
10150.9
10865.2
11551.6
12213.6
12853.8
13474.6
14077.9
14665.1
15237.5
15795.7
16340.4
16871.7
17389.8
17894.3
18385
18861.4
19322.7
19768.2
20197.1
20608.3
21000.9
21373.9
21726.1
22056.5
22364.1
22647.7
22906.5
23139.5
23345.9
23524.9
23675.8
23798
23891.2
23955.1
23989.3
23993.9
23969
23914.7
23831.5
23719.8
23580.2
23413.4
23220.5
23002.2
22759.8
22494.4
22207.2
21899.7
21573.2
21229.1
20869
20494.2
20106.5
19707.2
19297.7
18879.7
18454.3
18023
17587
17147.4
16705.3
16261.6
15817.1
15372.4
14928
14484.2
14041.2
13599
13157.3
12715.5
12273.1
11829
11382
10930.5
10472.8
10006.5
9529.18
9037.66
8528.51
7997.73
7440.79
6852.68
6227.9
5560.72
4845.52
4077.48
3253.74
2375.1
1448.11
486.904
526.833
1572.47
2595.62
3585.59
4536.01
5444.29
6310.57
7136.8
7925.88
8681.15
9405.98
10103.6
10777
11428.7
12061
12675.7
13274.4
13858.4
14428.4
14985.1
15529
16060.1
16578.4
17083.6
17575.2
18052.7
18515.5
18962.6
19393.1
19806.1
20200.5
20575.3
20929.4
21261.6
21571
21856.3
22116.8
22351.3
22559.1
22739.3
22891.4
23014.6
23108.7
23173.2
23208
23212.9
23188.1
23133.9
23050.4
22938.3
22798.1
22630.6
22436.7
22217.4
21973.8
21707
21418.3
21109.1
20780.7
20434.8
20072.7
19695.9
19306
18904.5
18492.8
18072.5
17645
17211.5
16773.3
16331.6
15887.5
15442
14995.7
14549.5
14103.8
13659
13215.3
12772.7
12331.1
11890
11448.8
11006.6
10562.5
10114.9
9662.34
9202.77
8733.98
8253.36
7758
7244.61
6709.6
6149.13
5559.21
4935.92
4275.8
3576.39
2836.99
2059.72
1250.46
419.418
476.435
1423.99
2356.39
3265.82
4147.04
4997.21
5815.51
6602.54
7359.86
8089.51
8793.78
9474.97
10135.3
10776.6
11400.8
12009.3
12603.2
13183.7
13751.2
14306.4
14849.4
15380.2
15898.7
16404.5
16897.1
17375.9
17840.1
18288.8
18721.2
19136.1
19532.4
19909.2
20265.2
20599.4
20910.6
21197.8
21460
21696.2
21905.5
22087.2
22240.4
22364.8
22459.8
22525
22560.4
22565.7
22541.1
22486.8
22403.1
22290.6
22149.9
21981.6
21786.8
21566.3
21321.3
21053
20762.7
20451.8
20121.6
19773.6
19409.3
19030.4
18638.2
18234.4
17820.4
17397.7
16967.8
16531.9
16091.5
15647.6
15201.4
14753.8
14305.8
13857.9
13410.8
12965
12520.6
12077.7
11636.1
11195.7
10755.8
10315.8
9874.63
9431.15
8983.92
8531.27
8071.25
7601.67
7120.11
6623.91
6110.23
5576.15
5018.78
4435.49
3824.17
3183.67
2514.31
1818.4
1100.72
368.602
437.381
1308.47
2169
3013.21
3836.92
4637.53
5413.82
6165.72
6893.93
7599.64
8284.37
8949.68
9597.16
10228.3
10844.3
11446.5
12035.6
12612.4
13177.4
13730.9
14272.9
14803.4
15322
15828.4
16322
16802.1
17267.8
17718.2
18152.3
18569.1
18967.5
19346.3
19704.4
20040.6
20353.8
20643
20907
21144.9
21355.8
21538.9
21693.5
21819
21915
21981
22017
22022.7
21998.3
21944
21860.2
21747.3
21605.9
21436.9
21241.1
21019.5
20773.1
20503.4
20211.4
19898.6
19566.4
19216.4
18850
18468.7
18074.2
17668
17251.6
16826.4
16394.1
15955.8
15513
15066.8
14618.5
14168.9
13719
13269.5
12821
12374.1
11928.9
11485.7
11044.4
10604.7
10166.2
9728.38
9290.32
8851.03
8409.26
7963.59
7512.35
7053.72
6585.68
6106.09
5612.71
5103.33
4575.86
4028.49
3459.98
2869.86
2258.82
1628.95
983.972
329.135
406.38
1216.53
2019.13
2809.9
3585.56
4343.86
5083.55
5804.2
6506.02
7189.66
7856.06
8506.27
9141.4
9762.52
10370.6
10966.4
11550.6
12123.7
12686
13237.7
13778.7
14308.7
14827.5
15334.4
15828.9
16310.1
16777.3
17229.4
17665.3
18084.1
18484.5
18865.3
19225.4
19563.7
19878.9
20170
20435.9
20675.5
20888.1
21072.7
21228.7
21355.4
21452.4
21519.3
21555.8
21562
21537.9
21483.7
21399.7
21286.4
21144.5
20974.7
20777.9
20555.2
20307.5
20036.2
19742.6
19428
19093.9
18741.8
18373.2
17989.7
17592.8
17184.2
16765.3
16337.8
15902.9
15462.3
15017.1
14568.7
14118.2
13666.6
13214.8
12763.8
12314
11866
11420.2
10976.7
10535.6
10096.7
9659.76
9224.18
8789.3
8354.24
7917.96
7479.21
7036.63
6588.65
6133.64
5669.84
5195.51
4708.93
4208.58
3693.21
3162.06
2615
2052.78
1477.14
890.865
297.744
381.282
1141.96
1897.13
2643.6
3378.82
4100.91
4808.72
5501.68
6179.72
6843.15
7492.52
8128.5
8751.85
9363.3
9963.51
10553
11132.4
11701.7
12261.3
12811
13350.8
13880.3
14399
14906.3
15401.6
15883.9
16352.4
16806.1
17243.8
17664.3
18066.7
18449.5
18811.6
19151.9
19469.1
19762.1
20029.8
20271.2
20485.4
20671.5
20828.9
20956.8
21054.8
21122.6
21159.9
21166.5
21142.7
21088.6
21004.5
20890.9
20748.5
20578
20380.3
20156.5
19907.6
19634.8
19339.6
19023.3
18687.3
18333.2
17962.5
17576.8
17177.6
16766.7
16345.5
15915.5
15478.4
15035.4
14587.9
14137.3
13684.7
13231.2
12777.8
12325.2
11874.1
11425.2
10978.8
10535.2
10094.5
9656.54
9221.16
8787.92
8356.27
7925.47
7494.62
7062.69
6628.52
6190.8
5748.18
5299.23
4842.57
4376.86
3900.94
3413.93
2915.33
2405.17
1884.07
1353.41
815.253
272.301
360.618
1080.47
1796.25
2505.59
3206.48
3897.42
4577.39
5245.81
5902.47
6547.45
7181.06
7803.7
8415.86
9018
9610.57
10193.9
10768.3
11333.8
11890.5
12438.2
12976.6
13505.3
14023.7
14531.3
15027.2
15510.4
15980.1
16435.1
16874.4
17296.7
17700.8
18085.5
18449.5
18791.7
19110.7
19405.6
19675.1
19918.2
20134
20321.6
20480.3
20609.4
20708.4
20777.1
20815.1
20822.3
20798.8
20744.8
20660.6
20546.8
20404
20232.9
20034.4
19809.6
19559.5
19285.5
18988.8
18670.8
18333.1
17977.1
17604.5
17216.7
16815.5
16402.4
15979
15546.8
15107.4
14662.3
14212.8
13760.2
13305.7
12850.4
12395.4
11941.4
11489.3
11039.7
10592.9
10149.3
9709.04
9272.15
8838.46
8407.66
7979.29
7552.74
7127.27
6702
6275.93
5848.01
5417.08
4982
4541.62
4094.88
3640.89
3178.97
2708.76
2230.3
1744.09
1251.13
752.916
251.355
343.336
1028.98
1711.62
2389.45
3060.93
3724.87
4380.41
5027.01
5664.4
6292.55
6911.57
7521.71
8123.23
8716.42
9301.53
9878.74
10448.1
11009.7
11563.3
12108.7
12645.5
13173.2
13691.2
14198.7
14694.9
15178.8
15649.4
16105.6
16546.2
16969.9
17375.6
17762
18127.7
18471.6
18792.4
19088.9
19360.1
19604.8
19822.1
20011.1
20171
20301.3
20401.4
20470.9
20509.6
20517.4
20494.3
20440.5
20356.4
20242.4
20099.3
19927.7
19728.5
19502.9
19251.8
18976.7
18678.7
18359.3
18020.1
17662.5
17288.1
16898.5
16495.4
16080.4
15655
15220.9
14779.6
14332.5
13881.2
13426.8
12970.7
12513.9
12057.6
11602.5
11149.6
10699.4
10252.4
9809.07
9369.52
8933.87
8502.02
8073.77
7648.75
7226.46
6806.28
6387.48
5969.22
5550.61
5130.68
4708.47
4283.04
3853.52
3419.18
2979.47
2534.07
2083
1626.59
1165.52
700.849
233.879
328.666
985.239
1639.58
2290.34
2936.36
3576.69
4210.62
4837.7
5457.64
6070.35
6675.83
7274.2
7865.58
8450.11
9027.89
9598.97
10163.3
10720.8
11271.1
11814
12348.9
12875.3
13392.4
13899.6
14395.7
14880
15351.1
15808.1
16249.7
16674.6
17081.6
17469.3
17836.5
18181.9
18504.2
18802.2
19074.8
19321
19539.6
19729.9
19891.1
20022.4
20123.5
20193.8
20233.2
20241.6
20218.9
20165.4
20081.4
19967.5
19824.1
19652.2
19452.6
19226.3
18974.5
18698.4
18399.5
18079
17738.5
17379.5
17003.7
16612.6
16207.9
15791.3
15364.3
14928.6
14485.7
14037.1
13584.2
13128.4
12671
12213.1
11755.8
11300
10846.6
10396.1
9949.29
9506.43
9067.83
8633.63
8203.83
7778.27
7356.69
6938.69
6523.75
6111.25
5700.5
5290.73
4881.13
4470.87
4059.16
3645.27
3228.56
2808.54
2384.93
1957.65
1526.88
1093.05
656.845
219.122
316.019
947.5
1577.34
2204.54
2828.22
3447.66
4062.3
4671.76
5275.76
5874.2
6467.02
7054.22
7635.85
8211.93
8782.45
9347.34
9906.46
10459.6
11006.3
11546.3
12079
12603.7
13119.6
13626
14121.7
14605.8
15077.1
15534.5
15976.7
16402.4
16810.3
17199
17567.3
17913.9
18237.4
18536.6
18810.5
19057.8
19277.6
19469
19631.2
19763.6
19865.5
19936.7
19976.8
19985.8
19963.6
19910.4
19826.7
19712.9
19569.5
19397.5
19197.6
18970.9
18718.7
18442
18142.3
17821
17479.6
17119.7
16742.8
16350.6
15944.8
15527
15098.9
14662
14217.9
13768.2
13314.2
12857.5
12399.2
11940.6
11482.8
11026.6
10573
10122.8
9676.41
9234.4
8797.07
8364.61
7937.09
7514.42
7096.42
6682.76
6273.04
5866.72
5463.21
5061.86
4661.97
4262.83
3863.75
3464.07
3063.22
2660.76
2256.37
1849.9
1441.38
1031.03
619.24
206.52
304.938
914.412
1522.7
2129.07
2732.89
3333.61
3930.8
4524.15
5113.45
5698.55
6279.38
6855.89
7428.04
7995.78
8559.01
9117.57
9671.23
10219.7
10762.5
11299.2
11829.2
12351.7
12865.9
13370.9
13865.7
14349.2
14820.2
15277.5
15719.8
16145.8
16554.1
16943.4
17312.4
17659.7
17984.1
18284.2
18558.9
18807.2
19027.9
19220.3
19383.4
19516.6
19619.4
19691.3
19732.1
19741.6
19720
19667.3
19584
19470.4
19327.2
19155.3
18955.4
18728.7
18476.3
18199.4
17899.3
17577.7
17235.8
16875.3
16497.9
16105.1
15698.7
15280.2
14851.4
14413.9
13969.2
13518.8
13064.4
12607.2
12148.6
11689.8
11231.9
10775.9
10322.8
9873.12
9427.67
8986.93
8551.25
8120.88
7695.94
7276.41
6862.17
6452.98
6048.49
5648.27
5251.81
4858.53
4467.83
4079.08
3691.66
3304.97
2918.5
2531.78
2144.46
1756.34
1367.3
977.383
586.748
195.638
295.058
884.894
1473.9
2061.56
2647.43
3231.1
3812.27
4390.71
4966.23
5538.7
6108.03
6674.15
7236.96
7796.34
8352.14
8904.13
9452.02
9995.43
10533.9
11066.8
11593.5
12113.3
12625.2
13128.3
13621.5
14103.8
14573.8
15030.4
15472.2
15897.9
16306.2
16695.6
17064.8
17412.4
17737.1
18037.7
18313
18561.9
18783.3
18976.3
19140.1
19274
19377.4
19450
19491.5
19501.6
19480.6
19428.5
19345.6
19232.5
19089.8
18918.3
18718.7
18492.3
18240.1
17963.3
17663.4
17341.8
17000
16639.6
16262.1
15869.3
15462.8
15044.3
14615.4
14177.8
13733.2
13282.9
12828.6
12371.6
11913.3
11454.9
10997.6
10542.3
10090.1
9641.65
9197.66
8758.67
8325.1
7897.24
7475.25
7059.18
6648.96
6244.4
5845.24
5451.1
5061.54
4676.06
4294.12
3915.16
3538.6
3163.89
2790.51
2418.02
2046.02
1674.21
1302.39
930.453
558.354
186.133
286.084
858.066
1429.5
2000.04
2569.39
3137.28
3703.5
4267.88
4830.29
5390.61
5948.75
6504.61
7058.06
7608.96
8157.08
8702.16
9243.85
9781.71
10315.2
10843.8
11366.6
11882.9
12391.9
12892.4
13383.3
13863.7
14332.1
14787.3
15228
15652.8
16060.3
16449.2
16817.9
17165.3
17490
17790.6
18066
18315.1
18536.8
18730.1
18894.4
19028.8
19132.8
19205.9
19248
19258.8
19238.4
19187
19104.8
18992.4
18850.4
18679.5
18480.6
18254.9
18003.3
17727.2
17428
17107
16765.8
16406
16029.2
15637
15231.1
14813.2
14385
13948.1
13504.2
13054.7
12601.2
12145.1
11687.9
11230.6
10774.5
10320.7
9870.09
9423.46
8981.52
8544.87
8113.95
7689.08
7270.49
6858.26
6452.37
6052.7
5659.01
5271
4888.3
4510.44
4136.95
3767.29
3400.94
3037.37
2676.06
2316.55
1958.42
1601.29
1244.86
888.909
533.243
177.732
277.769
833.196
1388.3
1942.87
2496.74
3049.75
3601.76
4152.66
4702.38
5250.81
5797.86
6343.44
6887.38
7429.52
7969.6
8507.31
9042.27
9573.99
10101.9
10625.4
11143.6
11655.8
12160.9
12658.1
13146
13623.6
14089.6
14542.7
14981.5
15404.6
15810.7
16198.3
16566.1
16912.6
17236.6
17536.7
17811.8
18060.6
18282.2
18475.6
18640
18774.6
18879
18952.6
18995.3
19006.7
18987
18936.4
18855.1
18743.6
18602.5
18432.7
18234.9
18010.2
17759.8
17484.9
17186.9
16867.2
16527.3
16168.7
15793.2
15402.4
14997.9
14581.5
14154.7
13719.3
13276.9
12829
12377.2
11922.9
11467.4
11012.1
10558.1
10106.5
9658.21
9214.11
8774.92
8341.26
7913.59
7492.3
7077.62
6669.68
6268.51
5874.03
5486.05
5104.32
4728.5
4358.19
3992.92
3632.23
3275.59
2922.49
2572.43
2224.91
1879.48
1535.71
1193.21
851.66
510.749
170.209
269.908
809.675
1349.3
1888.68
2427.76
2966.45
3504.7
4042.45
4579.66
5116.26
5652.16
6187.26
6721.4
7254.38
7785.93
8315.7
8843.28
9368.17
9889.75
10407.4
10920.2
11427.3
11927.9
12420.7
12904.8
13378.8
13841.5
14291.5
14727.6
15148.3
15552.1
15937.8
16303.8
16648.8
16971.4
17270.4
17544.6
17792.7
18013.8
18206.8
18371
18505.7
18610.2
18684.2
18727.3
18739.4
18720.5
18670.8
18590.5
18480.2
18340.4
18172
17975.7
17752.6
17503.9
17230.8
16934.6
16616.8
16278.9
15922.5
15549.1
15160.4
14758.2
14344
13919.6
13486.6
13046.6
12601.2
12152
11700.3
11247.6
10795.1
10344
9895.46
9450.35
9009.59
8573.92
8143.97
7720.26
7303.17
6892.99
6489.88
6093.9
5705
5323.05
4947.82
4579
4216.24
3859.12
3507.16
3159.88
2816.77
2477.32
2141.02
1807.38
1475.92
1146.2
817.799
490.317
163.379
262.328
786.983
1311.64
1836.29
2360.96
2885.63
3410.31
3935.01
4459.69
4984.32
5508.83
6033.11
6557.01
7080.3
7602.7
8123.86
8643.33
9160.58
9674.98
10185.8
10692.3
11193.5
11688.5
12176.1
12655.3
13124.7
13583.2
14029.3
14461.7
14879
15279.8
15662.6
16026.1
16368.8
16689.4
16986.6
17259.3
17506.1
17726.2
17918.5
18082.2
18216.6
18321
18395.2
18438.7
18451.4
18433.4
18384.7
18305.7
18196.8
18058.7
17892
17697.7
17476.8
17230.3
16959.6
16666
16350.9
16015.7
15662.2
15291.8
14906.2
14507.1
14096.1
13675
13245.4
12808.9
12367
11921.3
11473.3
11024.3
10575.6
10128.4
9683.81
9242.8
8806.26
8374.95
7949.54
7530.54
7118.38
6713.36
6315.68
5925.43
5542.58
5167.05
4798.62
4437.03
4081.94
3732.96
3389.64
3051.5
2718.04
2388.75
2063.09
1740.56
1420.62
1102.78
786.564
471.486
157.087
254.879
764.678
1274.59
1784.7
2295.08
2805.78
3316.87
3828.37
4340.31
4852.67
5365.39
5878.36
6391.44
6904.4
7416.94
7928.69
8439.2
8947.91
9454.2
9957.33
10456.5
10950.7
11439.1
11920.4
12393.6
12857.5
13310.6
13751.8
14179.6
14592.5
14989.3
15368.4
15728.4
16068
16385.9
16680.6
16951.1
17196.1
17414.6
17605.7
17768.5
17902.3
18006.5
18080.6
18124.5
18137.8
18120.7
18073.2
17995.6
17888.5
17752.3
17587.9
17396.1
17177.8
16934.3
16666.7
16376.3
16064.7
15733.2
15383.4
15016.9
14635.3
14240.4
13833.7
13416.9
12991.7
12559.7
12122.4
11681.4
11238.1
10793.8
10350
9907.7
9468.1
9032.18
8600.82
8174.8
7754.8
7341.35
6934.91
6535.8
6144.23
5760.31
5384.07
5015.41
4654.18
4300.12
3952.91
3612.19
3277.53
2948.45
2624.45
2305.02
1989.61
1677.68
1368.68
1062.07
757.311
453.863
151.2
247.437
742.382
1237.54
1733.04
2229.02
2725.59
3222.85
3720.86
4219.67
4719.29
5219.67
5720.72
6222.28
6724.14
7225.98
7727.44
8228.04
8727.23
9224.37
9718.72
10209.4
10695.6
11176.2
11650.2
12116.3
12573.4
13020.2
13455.3
13877.3
14284.9
14676.6
15051
15406.8
15742.4
16056.6
16348.1
16615.7
16858.3
17074.7
17264
17425.5
17558.3
17662
17736
17780
17794
17777.8
17731.6
17655.8
17550.6
17416.9
17255.1
17066.3
16851.3
16611.4
16347.6
16061.4
15754
15427
15081.9
14720.3
14343.9
13954.1
13552.7
13141.4
12721.8
12295.4
11863.8
11428.6
10991.2
10552.9
10115
9678.74
9245.22
8815.44
8390.29
7970.56
7556.92
7149.95
6750.08
6357.68
5972.96
5596.08
5227.05
4865.82
4512.25
4166.1
3827.09
3494.85
3168.96
2848.97
2534.37
2224.65
1919.25
1617.61
1319.16
1023.31
729.488
437.114
145.608
239.892
719.772
1199.94
1680.58
2161.86
2643.95
3126.96
3611.01
4096.15
4582.42
5069.79
5558.16
6047.4
6537.28
7027.5
7517.67
8007.34
8495.94
8982.82
9467.24
9948.37
10425.3
10897
11362.3
11820.2
12269.4
12708.6
13136.5
13551.7
13952.8
14338.4
14707
15057.4
15388.2
15697.9
15985.4
16249.4
16488.7
16702.4
16889.5
17049.2
17180.8
17283.6
17357.2
17401.4
17415.9
17400.7
17356
17282.1
17179.3
17048.3
16889.7
16704.5
16493.4
16257.8
15998.6
15717.3
15415.1
15093.6
14754.2
14398.6
14028.2
13644.8
13249.9
12845.2
12432.3
12012.8
11588.2
11160
10729.6
10298.4
9867.69
9438.65
9012.37
8589.86
8172.02
7759.63
7353.38
6953.84
6561.48
6176.66
5799.62
5430.51
5069.38
4716.2
4370.83
4033.07
3702.64
3379.18
3062.3
2751.54
2446.4
2146.37
1850.88
1559.36
1271.21
985.838
702.624
420.955
140.215
232.152
696.572
1161.34
1626.68
2092.79
2559.88
3028.09
3497.55
3968.36
4440.54
4914.1
5388.95
5864.95
6341.88
6819.45
7297.28
7774.9
8251.76
8727.2
9200.48
9670.78
10137.2
10598.7
11054.2
11502.6
11942.6
12373
12792.4
13199.5
13593
13971.3
14333.2
14677.3
15002.1
15306.5
15589
15848.6
16084.1
16294.5
16478.8
16636.2
16766.1
16867.7
16940.8
16984.9
17000
16985.9
16942.9
16871.1
16771
16643.1
16488.2
16307.1
16100.7
15870
15616.2
15340.7
15044.7
14729.6
14397
14048.4
13685.3
13309.4
12922.2
12525.3
12120.4
11709
11292.6
10872.6
10450.6
10027.8
9605.52
9184.91
8767.09
8353.03
7943.64
7539.71
7141.93
6750.86
6366.99
5990.67
5622.18
5261.66
4909.19
4564.73
4228.18
3899.35
3577.96
3263.67
2956.11
2654.83
2359.32
2069.07
1783.52
1502.08
1224.15
949.105
676.315
405.141
134.939
224.139
672.55
1121.35
1570.81
2021.14
2472.57
2925.28
3379.42
3835.1
4292.36
4751.21
5211.59
5673.35
6136.29
6600.11
7064.45
7528.85
7992.74
8455.49
8916.37
9374.55
9829.13
10279.1
10723.5
11161
11590.5
12010.8
12420.5
12818.4
13203
13572.9
13926.9
14263.6
14581.5
14879.5
15156.3
15410.7
15641.5
15847.9
16028.8
16183.5
16311.3
16411.5
16483.7
16527.7
16543.3
16530.3
16489
16419.7
16322.6
16198.3
16047.6
15871.2
15670
15445.1
15197.6
14928.7
14639.8
14332.2
14007.5
13667
13312.4
12945.1
12566.9
12179.1
11783.5
11381.5
10974.6
10564.3
10151.9
9738.79
9326.21
8915.33
8507.21
8102.84
7703.11
7308.81
6920.61
6539.09
6164.74
5797.91
5438.88
5087.82
4744.81
4409.82
4082.77
3763.46
3451.65
3147.02
2849.18
2557.69
2272.07
1991.8
1716.32
1445.05
1177.36
912.628
650.215
389.462
129.71
215.789
647.512
1079.66
1512.52
1946.34
2381.35
2817.76
3255.74
3695.39
4136.8
4579.96
5024.83
5471.28
5919.1
6368.02
6817.67
7267.59
7717.25
8166.02
8613.17
9057.89
9499.3
9936.43
10368.2
10793.6
11211.3
11620.1
12018.8
12406.1
12780.6
13141
13485.9
13814
14124
14414.7
14684.8
14933.1
15158.6
15360.3
15537.2
15688.6
15813.8
15912.3
15983.5
16027.2
16043.2
16031.4
15992.1
15925.3
15831.6
15711.4
15565.4
15394.3
15199.1
14980.7
14740.2
14479
14198.1
13899.1
13583.3
13252.1
12907.1
12549.8
12181.8
11804.5
11419.4
11028.2
10632.1
10232.8
9831.42
9429.37
9027.85
8628
8230.89
7837.48
7448.65
7065.18
6687.73
6316.89
5953.13
5596.81
5248.22
4907.53
4574.83
4250.1
3933.27
3624.16
3322.54
3028.08
2740.42
2459.14
2183.75
1913.75
1648.57
1387.63
1130.32
876.001
624.03
373.742
124.468
207.049
621.301
1036.01
1451.46
1867.93
2285.67
2704.88
3125.76
3548.43
3972.97
4399.4
4827.67
5257.67
5689.2
6122
6555.7
6989.87
7423.98
7857.42
8289.48
8719.37
9146.22
9569.09
9986.95
10398.7
10803.2
11199.3
11585.7
11961.1
12324.2
12673.7
13008.4
13326.9
13627.9
13910.2
14172.6
14414
14633.3
14829.6
15002
15149.6
15271.9
15368.2
15438.1
15481.4
15497.7
15487.3
15450
15386.1
15296.1
15180.3
15039.5
14874.4
14685.8
14474.7
14242.2
13989.5
13717.8
13428.3
13122.5
12801.9
12467.8
12121.7
11765.1
11399.5
11026.5
10647.3
10263.6
9876.53
9487.57
9097.95
8708.85
8321.39
7936.61
7555.47
7178.81
6807.39
6441.9
6082.88
5730.81
5386.07
5048.92
4719.55
4398.05
4084.42
3778.58
3480.38
3189.59
2905.9
2628.95
2358.34
2093.6
1834.22
1579.65
1329.31
1082.6
838.881
597.512
357.83
119.164
197.879
593.795
990.181
1387.34
1785.55
2185.08
2586.15
2988.94
3393.59
3800.2
4208.79
4619.32
5031.69
5445.71
5861.13
6277.61
6694.71
7111.93
7528.67
7944.25
8357.91
8768.8
9175.99
9578.51
9975.28
10365.2
10747.1
11119.8
11482
11832.4
12169.9
12493.1
12800.8
13091.7
13364.7
13618.5
13852.1
14064.5
14254.6
14421.8
14565.1
14683.9
14777.8
14846.2
14888.8
14905.6
14896.3
14861.3
14800.6
14714.5
14603.7
14468.6
14310.1
14128.8
13925.9
13702.2
13458.9
13197.3
12918.5
12623.9
12314.9
11992.9
11659.3
11315.5
10963
10603.3
10237.6
9867.52
9494.23
9119.07
8743.26
8367.96
7994.26
7623.16
7255.59
6892.39
6534.3
6181.96
5835.94
5496.7
5164.61
4839.93
4522.86
4213.48
3911.82
3617.78
3331.24
3051.97
2779.68
2514.03
2254.61
2000.98
1752.64
1509.05
1269.65
1033.83
800.981
570.455
341.602
113.755
188.247
564.901
942.035
1319.95
1698.95
2079.28
2461.18
2844.85
3230.42
3617.99
4007.6
4399.22
4792.75
5188.02
5584.79
5982.72
6381.42
6780.39
7179.06
7576.76
7972.77
8366.27
8756.38
9142.12
9522.49
9896.42
10262.8
10620.4
10968.1
11304.6
11628.7
11939.3
12235
12514.7
12777.3
13021.6
13246.5
13451.1
13634.5
13795.7
13934.2
14049.2
14140.2
14206.8
14248.7
14265.7
14257.8
14225.1
14167.7
14086.1
13980.6
13851.8
13700.4
13527.2
13333.1
13119.1
12886.2
12635.7
12368.7
12086.4
11790.3
11481.6
11161.7
10832.1
10494
10148.9
9798.19
9443.1
9084.95
8724.99
8364.39
8004.28
7645.7
7289.63
6936.97
6588.52
6245.01
5907.06
5575.23
5249.95
4931.6
4620.45
4316.66
4020.35
3731.53
3450.13
3176.03
2909
2648.78
2395.04
2147.38
1905.38
1668.55
1436.37
1208.29
983.726
762.068
542.692
324.956
108.209
178.133
534.561
891.469
1249.16
1607.94
1968.06
2329.75
2693.22
3058.61
3426.02
3795.49
4167
4540.47
4915.74
5292.57
5670.66
6049.62
6428.98
6808.19
7186.62
7563.58
7938.28
8309.87
8677.43
9039.99
9396.52
9745.95
10087.1
10419
10740.3
11049.9
11346.6
11629.2
11896.7
12147.8
12381.6
12597
12793
12968.8
13123.6
13256.6
13367.3
13455.1
13519.7
13560.6
13577.9
13571.4
13541.1
13487.4
13410.4
13310.6
13188.6
13045
12880.6
12696.1
12492.6
12271.1
12032.7
11778.4
11509.6
11227.5
10933.4
10628.5
10314.3
9991.98
9662.93
9328.44
8989.77
8648.15
8304.78
7960.78
7617.23
7275.14
6935.45
6599.01
6266.6
5938.93
5616.59
5300.12
4989.96
4686.45
4389.86
4100.37
3818.08
3543
3275.09
3014.21
2760.17
2512.71
2271.52
2036.22
1806.4
1581.59
1361.29
1144.96
932.049
721.961
514.091
307.814
102.498
167.527
502.741
838.431
1174.9
1512.44
1851.31
2191.74
2533.93
2878.03
3224.14
3572.31
3922.53
4274.72
4628.73
4984.36
5341.3
5699.19
6057.59
6415.98
6773.77
7130.28
7484.78
7836.45
8184.44
8527.8
8865.57
9196.71
9520.16
9834.84
10139.6
10433.4
10715.1
10983.5
11237.7
11476.4
11698.7
11903.7
12090.4
12257.9
12405.6
12532.7
12638.6
12722.8
12785.1
12825
12842.4
12837.2
12809.6
12759.6
12687.7
12594.1
12479.3
12344.1
12189.1
12015
11822.9
11613.6
11388.2
11147.8
10893.5
10626.6
10348.2
10059.6
9762.08
9456.84
9145.16
8828.27
8507.38
8183.66
7858.25
7532.21
7206.58
6882.32
6560.33
6241.41
5926.32
5615.73
5310.21
5010.28
4716.36
4428.78
4147.8
3873.59
3606.27
3345.84
3092.26
2845.41
2605.12
2371.13
2143.14
1920.81
1703.74
1491.48
1283.55
1079.45
878.628
680.523
484.552
290.114
96.6018
156.428
469.439
782.916
1097.15
1412.44
1729.02
2047.14
2366.98
2688.69
3012.39
3338.11
3665.86
3995.57
4327.1
4660.26
4994.77
5330.3
5666.42
6002.66
6338.44
6673.15
7006.09
7336.49
7663.53
7986.34
8304
8615.53
8919.95
9216.2
9503.26
9780.06
10045.5
10298.7
10538.4
10763.7
10973.7
11167.4
11343.9
11502.5
11642.4
11763
11863.8
11944.1
12003.8
12042.4
12059.9
12056.1
12031.2
11985.3
11918.6
11831.6
11724.6
11598.3
11453.4
11290.5
11110.5
10914.3
10702.9
10477.4
10238.7
9988.08
9726.61
9455.47
9175.85
8888.94
8595.92
8297.94
7996.16
7691.67
7385.55
7078.81
6772.42
6467.3
6164.29
5864.17
5567.64
5275.35
4987.84
4705.59
4429.01
4158.43
3894.09
3636.15
3384.73
3139.84
2901.44
2669.42
2443.62
2223.81
2009.7
1800.96
1597.22
1398.06
1203.02
1011.62
823.347
637.662
454.008
271.817
90.5076
144.842
434.677
724.96
1015.98
1308.01
1601.3
1896.07
2192.51
2490.76
2790.94
3093.1
3397.24
3703.29
4011.15
4320.63
4631.48
4943.38
5255.95
5568.74
5881.22
6192.82
6502.87
6810.67
7115.46
7416.41
7712.66
8003.31
8287.42
8564.02
8832.15
9090.8
9338.99
9575.73
9800.06
10011
10207.7
10389.3
10555
10703.9
10835.5
10949.1
11044.2
11120.3
11177.1
11214.3
11231.8
11229.5
11207.4
11165.7
11104.6
11024.5
10925.8
10808.9
10674.7
10523.6
10356.6
10174.4
9977.9
9768.15
9546.12
9312.84
9069.4
8816.87
8556.38
8289.02
8015.9
7738.11
7456.7
7172.73
6887.19
6601.03
6315.16
6030.44
5747.67
5467.57
5190.81
4917.99
4649.62
4386.18
4128.02
3875.47
3628.76
3388.06
3153.45
2924.96
2702.57
2486.17
2275.61
2070.67
1871.09
1676.56
1486.74
1301.23
1119.6
941.398
766.141
593.324
422.422
252.899
84.2071
132.786
398.501
664.643
931.489
1199.3
1468.31
1738.74
2010.76
2284.53
2560.14
2837.66
3117.08
3398.37
3681.41
3966.05
4252.04
4539.12
4826.92
5115.03
5402.97
5690.19
5976.1
6260.05
6541.32
6819.16
7092.77
7361.31
7623.91
7879.7
8127.74
8367.14
8596.96
8816.3
9024.25
9219.95
9402.55
9571.24
9725.28
9863.95
9986.62
10092.7
10181.7
10253.3
10307
10342.6
10360
10359.1
10340
10302.7
10247.4
10174.6
10084.5
9977.67
9854.66
9716.11
9562.72
9395.27
9214.6
9021.58
8817.15
8602.26
8377.91
8145.11
7904.87
7658.23
7406.2
7149.78
6889.98
6627.74
6364.01
6099.65
5835.52
5572.42
5311.07
5052.16
4796.32
4544.09
4295.98
4052.39
3813.69
3580.17
3352.05
3129.49
2912.58
2701.34
2495.76
2295.73
2101.12
1911.74
1727.33
1547.63
1372.3
1200.98
1033.28
868.766
706.995
547.496
389.782
233.353
77.698
120.282
360.981
602.083
843.847
1086.52
1330.32
1575.47
1822.12
2070.42
2320.47
2572.33
2826.01
3081.46
3338.61
3597.3
3857.34
4118.45
4380.33
4642.6
4904.81
5166.49
5427.07
5685.98
5942.55
6196.1
6445.9
6691.18
6931.16
7165.01
7391.9
7610.99
7821.44
8022.41
8213.07
8392.63
8560.31
8715.36
8857.09
8984.86
9098.06
9196.18
9278.74
9345.37
9395.74
9429.62
9446.86
9447.39
9431.23
9398.49
9349.36
9284.1
9203.08
9106.72
8995.53
8870.1
8731.06
8579.12
8415.03
8239.6
8053.68
7858.14
7653.88
7441.83
7222.92
6998.08
6768.25
6534.36
6297.3
6057.95
5817.17
5575.77
5334.53
5094.17
4855.38
4618.77
4384.93
4154.37
3927.53
3704.81
3486.54
3272.99
3064.37
2860.83
2662.45
2469.26
2281.24
2098.31
1920.34
1747.17
1578.56
1414.27
1253.99
1097.39
944.11
793.764
645.937
500.199
356.102
213.187
70.9829
107.361
322.209
537.432
753.269
969.95
1187.69
1406.67
1627.05
1848.98
2072.54
2297.8
2524.76
2753.41
2983.67
3215.4
3448.43
3682.54
3917.43
4152.77
4388.18
4623.21
4857.37
5090.13
5320.91
5549.08
5773.98
5994.94
6211.23
6422.11
6626.85
6824.66
7014.8
7196.5
7369.03
7531.64
7683.63
7824.34
7953.13
8069.41
8172.63