/*--------------------------------*- C++ -*----------------------------------*\
  =========                 |
  \\      /  F ield         | OpenFOAM: The Open Source CFD Toolbox
   \\    /   O peration     | Website:  https://openfoam.org
    \\  /    A nd           | Version:  9
     \\/     M anipulation  |
\*---------------------------------------------------------------------------*/
FoamFile
{
    format      ascii;
    class       volScalarField;
    location    "0.35";
    object      gradTz;
}
// * * * * * * * * * * * * * * * * * * * * * * * * * * * * * * * * * * * * * //

dimensions      [0 -1 0 1 0 0 0];

internalField   nonuniform List<scalar> 
200000
(
-6343.16
-6865.37
-7018.63
-7074.29
-7098.6
-7110.82
-7117.6
-7121.63
-7124.14
-7125.73
-7126.77
-7127.42
-7127.83
-7128.07
-7128.17
-7128.19
-7128.15
-7128.06
-7127.93
-7127.77
-7127.6
-7127.41
-7127.21
-7127.01
-7126.8
-7126.59
-7126.38
-7126.18
-7125.98
-7125.78
-7125.6
-7125.42
-7125.25
-7125.09
-7124.93
-7124.8
-7124.67
-7124.55
-7124.45
-7124.36
-7124.29
-7124.23
-7124.19
-7124.16
-7124.14
-7124.14
-7124.15
-7124.18
-7124.23
-7124.29
-7124.36
-7124.45
-7124.54
-7124.66
-7124.78
-7124.92
-7125.06
-7125.22
-7125.39
-7125.56
-7125.75
-7125.94
-7126.13
-7126.33
-7126.54
-7126.75
-7126.96
-7127.18
-7127.39
-7127.61
-7127.82
-7128.03
-7128.24
-7128.45
-7128.64
-7128.84
-7129.02
-7129.19
-7129.35
-7129.49
-7129.61
-7129.71
-7129.78
-7129.8
-7129.77
-7129.67
-7129.47
-7129.15
-7128.65
-7127.9
-7126.77
-7125.07
-7122.46
-7118.32
-7111.43
-7099.11
-7074.68
-7018.91
-6865.54
-6343.22
-6865.37
-7869.2
-8223.29
-8367.3
-8434.23
-8468.98
-8488.6
-8500.37
-8507.73
-8512.44
-8515.48
-8517.43
-8518.63
-8519.32
-8519.64
-8519.7
-8519.56
-8519.27
-8518.88
-8518.42
-8517.89
-8517.32
-8516.73
-8516.12
-8515.5
-8514.87
-8514.25
-8513.64
-8513.04
-8512.46
-8511.89
-8511.35
-8510.84
-8510.36
-8509.91
-8509.49
-8509.11
-8508.76
-8508.46
-8508.2
-8507.97
-8507.8
-8507.66
-8507.57
-8507.52
-8507.52
-8507.57
-8507.65
-8507.79
-8507.96
-8508.18
-8508.44
-8508.73
-8509.07
-8509.44
-8509.85
-8510.29
-8510.76
-8511.26
-8511.79
-8512.33
-8512.9
-8513.49
-8514.1
-8514.72
-8515.34
-8515.98
-8516.62
-8517.27
-8517.91
-8518.56
-8519.19
-8519.82
-8520.43
-8521.03
-8521.61
-8522.15
-8522.67
-8523.15
-8523.58
-8523.94
-8524.24
-8524.43
-8524.5
-8524.42
-8524.12
-8523.55
-8522.59
-8521.11
-8518.87
-8515.53
-8510.52
-8502.85
-8490.76
-8470.81
-8435.74
-8368.47
-8224.13
-7869.7
-6865.54
-7018.63
-8223.29
-8687.25
-8889.85
-8988.95
-9042.17
-9072.89
-9091.58
-9103.37
-9110.96
-9115.89
-9119.04
-9120.99
-9122.1
-9122.61
-9122.68
-9122.43
-9121.95
-9121.3
-9120.51
-9119.63
-9118.69
-9117.69
-9116.67
-9115.63
-9114.59
-9113.56
-9112.53
-9111.53
-9110.56
-9109.62
-9108.73
-9107.87
-9107.07
-9106.31
-9105.62
-9104.98
-9104.41
-9103.9
-9103.46
-9103.09
-9102.79
-9102.57
-9102.41
-9102.34
-9102.34
-9102.41
-9102.55
-9102.77
-9103.07
-9103.43
-9103.86
-9104.36
-9104.92
-9105.54
-9106.22
-9106.95
-9107.74
-9108.57
-9109.44
-9110.36
-9111.31
-9112.29
-9113.3
-9114.33
-9115.38
-9116.44
-9117.51
-9118.58
-9119.66
-9120.73
-9121.79
-9122.84
-9123.86
-9124.86
-9125.82
-9126.73
-9127.6
-9128.4
-9129.11
-9129.73
-9130.22
-9130.55
-9130.68
-9130.55
-9130.07
-9129.14
-9127.59
-9125.17
-9121.54
-9116.12
-9108.02
-9095.71
-9076.49
-9045.23
-8991.47
-8891.82
-8688.65
-8224.13
-7018.91
-7074.29
-8367.3
-8889.85
-9129
-9250.66
-9317.98
-9357.69
-9382.22
-9397.85
-9407.99
-9414.58
-9418.82
-9421.44
-9422.91
-9423.57
-9423.64
-9423.27
-9422.58
-9421.65
-9420.54
-9419.3
-9417.97
-9416.57
-9415.14
-9413.68
-9412.22
-9410.77
-9409.34
-9407.93
-9406.57
-9405.26
-9404
-9402.8
-9401.67
-9400.62
-9399.64
-9398.75
-9397.95
-9397.23
-9396.62
-9396.1
-9395.68
-9395.36
-9395.15
-9395.04
-9395.04
-9395.14
-9395.35
-9395.66
-9396.06
-9396.57
-9397.17
-9397.87
-9398.66
-9399.53
-9400.48
-9401.51
-9402.61
-9403.77
-9405
-9406.28
-9407.61
-9408.99
-9410.4
-9411.84
-9413.31
-9414.8
-9416.3
-9417.81
-9419.32
-9420.82
-9422.3
-9423.77
-9425.2
-9426.6
-9427.95
-9429.24
-9430.45
-9431.57
-9432.58
-9433.45
-9434.14
-9434.62
-9434.82
-9434.66
-9434.03
-9432.77
-9430.68
-9427.41
-9422.5
-9415.21
-9404.36
-9388
-9362.73
-9322.27
-9254.18
-9131.75
-8891.82
-8368.48
-7074.69
-7098.6
-8434.23
-8988.95
-9250.66
-9387.66
-9465.31
-9511.99
-9541.23
-9560.05
-9572.35
-9580.38
-9585.55
-9588.73
-9590.51
-9591.27
-9591.3
-9590.79
-9589.87
-9588.65
-9587.2
-9585.6
-9583.88
-9582.08
-9580.22
-9578.35
-9576.46
-9574.59
-9572.74
-9570.94
-9569.18
-9567.49
-9565.87
-9564.33
-9562.87
-9561.52
-9560.26
-9559.11
-9558.08
-9557.16
-9556.36
-9555.7
-9555.16
-9554.75
-9554.48
-9554.34
-9554.33
-9554.46
-9554.73
-9555.12
-9555.65
-9556.3
-9557.08
-9557.98
-9558.99
-9560.11
-9561.33
-9562.66
-9564.07
-9565.57
-9567.15
-9568.8
-9570.51
-9572.28
-9574.1
-9575.96
-9577.85
-9579.77
-9581.7
-9583.64
-9585.58
-9587.51
-9589.43
-9591.32
-9593.17
-9594.97
-9596.7
-9598.36
-9599.93
-9601.38
-9602.69
-9603.82
-9604.73
-9605.36
-9605.65
-9605.48
-9604.73
-9603.2
-9600.62
-9596.6
-9590.57
-9581.64
-9568.43
-9548.67
-9518.47
-9470.83
-9392.19
-9254.19
-8991.48
-8435.75
-7099.11
-7110.82
-8468.98
-9042.17
-9317.98
-9465.31
-9550.37
-9602.29
-9635.21
-9656.6
-9670.66
-9679.88
-9685.81
-9689.44
-9691.44
-9692.26
-9692.21
-9691.52
-9690.36
-9688.83
-9687.04
-9685.06
-9682.95
-9680.73
-9678.46
-9676.15
-9673.85
-9671.55
-9669.29
-9667.08
-9664.93
-9662.86
-9660.87
-9658.98
-9657.2
-9655.54
-9654
-9652.59
-9651.33
-9650.2
-9649.23
-9648.41
-9647.75
-9647.26
-9646.92
-9646.75
-9646.74
-9646.9
-9647.22
-9647.71
-9648.35
-9649.15
-9650.1
-9651.2
-9652.43
-9653.81
-9655.3
-9656.92
-9658.66
-9660.49
-9662.43
-9664.44
-9666.54
-9668.71
-9670.93
-9673.21
-9675.52
-9677.87
-9680.24
-9682.61
-9684.99
-9687.35
-9689.7
-9692.01
-9694.28
-9696.48
-9698.61
-9700.65
-9702.57
-9704.36
-9705.97
-9707.37
-9708.51
-9709.31
-9709.7
-9709.56
-9708.72
-9706.97
-9703.98
-9699.33
-9692.34
-9682.03
-9666.85
-9644.31
-9610.22
-9557.12
-9470.85
-9322.31
-9045.27
-8470.83
-7111.44
-7117.6
-8488.6
-9072.89
-9357.69
-9511.99
-9602.29
-9658.06
-9693.79
-9717.17
-9732.62
-9742.78
-9749.3
-9753.27
-9755.42
-9756.23
-9756.07
-9755.17
-9753.74
-9751.89
-9749.75
-9747.38
-9744.86
-9742.22
-9739.52
-9736.79
-9734.05
-9731.33
-9728.65
-9726.03
-9723.49
-9721.03
-9718.68
-9716.44
-9714.34
-9712.37
-9710.54
-9708.88
-9707.38
-9706.05
-9704.89
-9703.93
-9703.14
-9702.55
-9702.15
-9701.95
-9701.94
-9702.13
-9702.51
-9703.09
-9703.85
-9704.79
-9705.92
-9707.21
-9708.68
-9710.3
-9712.07
-9713.99
-9716.04
-9718.22
-9720.5
-9722.89
-9725.38
-9727.94
-9730.58
-9733.27
-9736.01
-9738.79
-9741.59
-9744.4
-9747.22
-9750.02
-9752.8
-9755.53
-9758.22
-9760.83
-9763.36
-9765.78
-9768.07
-9770.19
-9772.11
-9773.79
-9775.17
-9776.17
-9776.68
-9776.59
-9775.71
-9773.79
-9770.48
-9765.3
-9757.53
-9746.08
-9729.3
-9704.56
-9667.45
-9610.27
-9518.54
-9362.81
-9076.56
-8490.8
-7118.33
-7121.63
-8500.37
-9091.58
-9382.22
-9541.23
-9635.21
-9693.79
-9731.59
-9756.48
-9772.99
-9783.85
-9790.81
-9795.01
-9797.21
-9797.96
-9797.64
-9796.51
-9794.78
-9792.6
-9790.08
-9787.32
-9784.38
-9781.32
-9778.19
-9775.02
-9771.85
-9768.7
-9765.6
-9762.56
-9759.62
-9756.78
-9754.06
-9751.47
-9749.03
-9746.75
-9744.65
-9742.72
-9740.98
-9739.44
-9738.11
-9736.99
-9736.09
-9735.4
-9734.94
-9734.71
-9734.7
-9734.91
-9735.35
-9736.01
-9736.89
-9737.98
-9739.28
-9740.78
-9742.47
-9744.35
-9746.4
-9748.62
-9750.99
-9753.5
-9756.14
-9758.91
-9761.78
-9764.74
-9767.79
-9770.9
-9774.07
-9777.28
-9780.52
-9783.78
-9787.03
-9790.27
-9793.48
-9796.65
-9799.76
-9802.79
-9805.72
-9808.52
-9811.18
-9813.65
-9815.89
-9817.86
-9819.49
-9820.69
-9821.36
-9821.35
-9820.46
-9818.43
-9814.89
-9809.29
-9800.89
-9788.53
-9770.5
-9744.04
-9704.63
-9644.43
-9548.8
-9388.13
-9095.82
-8502.91
-7122.48
-7124.14
-8507.73
-9103.37
-9397.85
-9560.05
-9656.6
-9717.17
-9756.48
-9782.47
-9799.74
-9811.11
-9818.35
-9822.67
-9824.86
-9825.49
-9824.97
-9823.57
-9821.52
-9818.98
-9816.08
-9812.91
-9809.55
-9806.05
-9802.48
-9798.87
-9795.26
-9791.68
-9788.15
-9784.71
-9781.36
-9778.13
-9775.04
-9772.1
-9769.33
-9766.74
-9764.34
-9762.15
-9760.18
-9758.43
-9756.92
-9755.64
-9754.61
-9753.84
-9753.31
-9753.04
-9753.03
-9753.28
-9753.77
-9754.52
-9755.52
-9756.76
-9758.24
-9759.94
-9761.86
-9763.99
-9766.32
-9768.83
-9771.52
-9774.38
-9777.38
-9780.52
-9783.78
-9787.15
-9790.61
-9794.14
-9797.74
-9801.39
-9805.07
-9808.77
-9812.46
-9816.15
-9819.8
-9823.4
-9826.93
-9830.38
-9833.71
-9836.91
-9839.94
-9842.76
-9845.34
-9847.61
-9849.5
-9850.93
-9851.77
-9851.87
-9851.03
-9848.94
-9845.23
-9839.33
-9830.44
-9817.39
-9798.38
-9770.61
-9729.48
-9667.06
-9568.65
-9404.56
-9108.17
-8510.61
-7125.1
-7125.73
-8512.44
-9110.96
-9407.99
-9572.35
-9670.66
-9732.62
-9772.99
-9799.74
-9817.54
-9829.22
-9836.63
-9840.96
-9843.07
-9843.53
-9842.76
-9841.06
-9838.67
-9835.76
-9832.45
-9828.86
-9825.07
-9821.13
-9817.12
-9813.06
-9809.01
-9804.99
-9801.03
-9797.16
-9793.41
-9789.79
-9786.33
-9783.03
-9779.93
-9777.02
-9774.34
-9771.89
-9769.67
-9767.71
-9766.02
-9764.59
-9763.43
-9762.56
-9761.97
-9761.67
-9761.65
-9761.93
-9762.48
-9763.32
-9764.44
-9765.83
-9767.48
-9769.38
-9771.53
-9773.92
-9776.53
-9779.34
-9782.36
-9785.55
-9788.92
-9792.43
-9796.08
-9799.86
-9803.73
-9807.69
-9811.73
-9815.81
-9819.94
-9824.08
-9828.22
-9832.35
-9836.44
-9840.48
-9844.44
-9848.31
-9852.05
-9855.65
-9859.06
-9862.24
-9865.16
-9867.74
-9869.91
-9871.58
-9872.62
-9872.87
-9872.1
-9870.02
-9866.21
-9860.1
-9850.86
-9837.28
-9817.54
-9788.79
-9746.4
-9682.37
-9581.97
-9415.49
-9116.34
-8515.67
-7126.81
-7126.77
-8515.48
-9115.89
-9414.58
-9580.38
-9679.88
-9742.78
-9783.85
-9811.11
-9829.22
-9841.08
-9848.52
-9852.79
-9854.75
-9854.98
-9853.93
-9851.9
-9849.15
-9845.84
-9842.12
-9838.1
-9833.86
-9829.48
-9825.01
-9820.51
-9816
-9811.54
-9807.15
-9802.86
-9798.7
-9794.69
-9790.84
-9787.19
-9783.75
-9780.53
-9777.56
-9774.84
-9772.38
-9770.21
-9768.33
-9766.74
-9765.46
-9764.49
-9763.84
-9763.5
-9763.48
-9763.78
-9764.4
-9765.33
-9766.56
-9768.1
-9769.93
-9772.04
-9774.42
-9777.06
-9779.95
-9783.07
-9786.41
-9789.95
-9793.67
-9797.57
-9801.61
-9805.79
-9810.09
-9814.48
-9818.95
-9823.47
-9828.04
-9832.63
-9837.22
-9841.8
-9846.34
-9850.82
-9855.21
-9859.51
-9863.66
-9867.66
-9871.46
-9875.01
-9878.27
-9881.18
-9883.64
-9885.58
-9886.84
-9887.26
-9886.61
-9884.58
-9880.74
-9874.5
-9865.03
-9851.08
-9830.81
-9801.34
-9758.02
-9692.84
-9591.03
-9422.89
-9121.83
-8519.05
-7127.96
-7127.42
-8517.43
-9119.04
-9418.82
-9585.55
-9685.81
-9749.3
-9790.81
-9818.35
-9836.63
-9848.52
-9855.91
-9860.04
-9861.78
-9861.74
-9860.37
-9857.99
-9854.85
-9851.14
-9846.99
-9842.52
-9837.83
-9833
-9828.07
-9823.11
-9818.15
-9813.24
-9808.42
-9803.7
-9799.13
-9794.72
-9790.5
-9786.48
-9782.7
-9779.17
-9775.9
-9772.91
-9770.21
-9767.83
-9765.76
-9764.01
-9762.61
-9761.54
-9760.82
-9760.45
-9760.43
-9760.75
-9761.43
-9762.45
-9763.8
-9765.48
-9767.49
-9769.8
-9772.42
-9775.32
-9778.49
-9781.91
-9785.58
-9789.46
-9793.55
-9797.83
-9802.27
-9806.86
-9811.57
-9816.39
-9821.3
-9826.27
-9831.29
-9836.33
-9841.37
-9846.4
-9851.39
-9856.31
-9861.14
-9865.87
-9870.44
-9874.85
-9879.04
-9882.97
-9886.58
-9889.82
-9892.6
-9894.81
-9896.31
-9896.93
-9896.43
-9894.5
-9890.69
-9884.4
-9874.79
-9860.59
-9839.96
-9810
-9766.02
-9700.02
-9597.23
-9427.93
-9125.56
-8521.35
-7128.73
-7127.83
-8518.63
-9120.99
-9421.44
-9588.73
-9689.44
-9753.27
-9795.01
-9822.67
-9840.96
-9852.79
-9860.04
-9863.96
-9865.44
-9865.1
-9863.38
-9860.62
-9857.07
-9852.93
-9848.34
-9843.42
-9838.27
-9832.97
-9827.58
-9822.15
-9816.74
-9811.38
-9806.12
-9800.97
-9795.98
-9791.17
-9786.57
-9782.19
-9778.07
-9774.22
-9770.65
-9767.39
-9764.45
-9761.85
-9759.59
-9757.69
-9756.15
-9754.99
-9754.2
-9753.79
-9753.77
-9754.12
-9754.86
-9755.96
-9757.44
-9759.27
-9761.45
-9763.97
-9766.82
-9769.98
-9773.43
-9777.16
-9781.15
-9785.39
-9789.84
-9794.5
-9799.34
-9804.34
-9809.48
-9814.73
-9820.08
-9825.5
-9830.96
-9836.46
-9841.96
-9847.44
-9852.88
-9858.25
-9863.52
-9868.68
-9873.68
-9878.49
-9883.08
-9887.39
-9891.38
-9894.96
-9898.06
-9900.56
-9902.32
-9903.17
-9902.85
-9901.05
-9897.32
-9891.05
-9881.38
-9867.05
-9846.19
-9815.89
-9771.48
-9704.91
-9601.44
-9431.35
-9128.09
-8522.9
-7129.25
-7128.07
-8519.32
-9122.1
-9422.91
-9590.51
-9691.44
-9755.42
-9797.21
-9824.86
-9843.07
-9854.75
-9861.78
-9865.44
-9866.61
-9865.92
-9863.83
-9860.66
-9856.69
-9852.11
-9847.06
-9841.69
-9836.07
-9830.3
-9824.44
-9818.54
-9812.67
-9806.86
-9801.15
-9795.57
-9790.16
-9784.95
-9779.96
-9775.22
-9770.76
-9766.58
-9762.72
-9759.19
-9756
-9753.18
-9750.73
-9748.67
-9747
-9745.74
-9744.89
-9744.44
-9744.41
-9744.79
-9745.58
-9746.78
-9748.37
-9750.36
-9752.72
-9755.44
-9758.52
-9761.94
-9765.68
-9769.72
-9774.04
-9778.62
-9783.45
-9788.49
-9793.73
-9799.14
-9804.7
-9810.39
-9816.18
-9822.05
-9827.97
-9833.92
-9839.87
-9845.81
-9851.7
-9857.52
-9863.24
-9868.83
-9874.26
-9879.5
-9884.49
-9889.19
-9893.55
-9897.48
-9900.91
-9903.72
-9905.76
-9906.85
-9906.75
-9905.12
-9901.51
-9895.32
-9885.66
-9871.28
-9850.29
-9819.8
-9775.1
-9708.17
-9604.25
-9433.64
-9129.77
-8523.93
-7129.6
-7128.17
-8519.64
-9122.61
-9423.57
-9591.27
-9692.26
-9756.23
-9797.96
-9825.49
-9843.53
-9854.98
-9861.74
-9865.1
-9865.92
-9864.86
-9862.36
-9858.77
-9854.36
-9849.32
-9843.82
-9837.97
-9831.88
-9825.63
-9819.29
-9812.93
-9806.59
-9800.32
-9794.17
-9788.15
-9782.33
-9776.71
-9771.34
-9766.23
-9761.41
-9756.91
-9752.75
-9748.95
-9745.52
-9742.47
-9739.84
-9737.61
-9735.82
-9734.45
-9733.53
-9733.05
-9733.01
-9733.42
-9734.27
-9735.55
-9737.27
-9739.4
-9741.94
-9744.87
-9748.19
-9751.86
-9755.88
-9760.23
-9764.88
-9769.82
-9775.01
-9780.44
-9786.08
-9791.9
-9797.89
-9804.02
-9810.25
-9816.57
-9822.94
-9829.35
-9835.77
-9842.16
-9848.51
-9854.78
-9860.95
-9866.98
-9872.85
-9878.5
-9883.9
-9889
-9893.73
-9898.03
-9901.8
-9904.93
-9907.27
-9908.62
-9908.75
-9907.32
-9903.88
-9897.81
-9888.22
-9873.86
-9852.83
-9822.25
-9777.39
-9710.25
-9606.05
-9435.1
-9130.86
-8524.6
-7129.83
-7128.19
-8519.7
-9122.68
-9423.64
-9591.3
-9692.21
-9756.07
-9797.64
-9824.97
-9842.76
-9853.93
-9860.37
-9863.38
-9863.83
-9862.36
-9859.44
-9855.41
-9850.55
-9845.05
-9839.07
-9832.74
-9826.17
-9819.44
-9812.63
-9805.79
-9798.98
-9792.25
-9785.64
-9779.2
-9772.95
-9766.92
-9761.16
-9755.68
-9750.52
-9745.7
-9741.24
-9737.16
-9733.47
-9730.21
-9727.38
-9725
-9723.07
-9721.6
-9720.61
-9720.09
-9720.05
-9720.49
-9721.39
-9722.76
-9724.6
-9726.88
-9729.6
-9732.74
-9736.29
-9740.22
-9744.53
-9749.19
-9754.17
-9759.45
-9765.01
-9770.83
-9776.87
-9783.11
-9789.53
-9796.09
-9802.77
-9809.54
-9816.37
-9823.24
-9830.12
-9836.97
-9843.78
-9850.51
-9857.13
-9863.6
-9869.9
-9875.97
-9881.79
-9887.29
-9892.41
-9897.07
-9901.19
-9904.65
-9907.3
-9908.94
-9909.33
-9908.12
-9904.88
-9898.96
-9889.49
-9875.21
-9854.22
-9823.62
-9778.71
-9711.46
-9607.11
-9435.98
-9131.51
-8525
-7129.96
-7128.15
-8519.56
-9122.43
-9423.27
-9590.79
-9691.52
-9755.17
-9796.51
-9823.57
-9841.06
-9851.9
-9857.99
-9860.62
-9860.66
-9858.77
-9855.41
-9850.94
-9845.61
-9839.63
-9833.17
-9826.36
-9819.3
-9812.09
-9804.79
-9797.48
-9790.2
-9783.01
-9775.95
-9769.06
-9762.39
-9755.96
-9749.81
-9743.96
-9738.45
-9733.3
-9728.53
-9724.18
-9720.25
-9716.76
-9713.74
-9711.19
-9709.13
-9707.56
-9706.5
-9705.94
-9705.9
-9706.35
-9707.32
-9708.78
-9710.73
-9713.16
-9716.06
-9719.4
-9723.19
-9727.39
-9731.98
-9736.94
-9742.26
-9747.89
-9753.82
-9760.03
-9766.47
-9773.13
-9779.97
-9786.97
-9794.1
-9801.32
-9808.61
-9815.94
-9823.28
-9830.6
-9837.87
-9845.05
-9852.12
-9859.04
-9865.77
-9872.28
-9878.51
-9884.41
-9889.92
-9894.96
-9899.44
-9903.24
-9906.21
-9908.15
-9908.81
-9907.85
-9904.82
-9899.1
-9889.79
-9875.63
-9854.73
-9824.18
-9779.29
-9712.02
-9607.63
-9436.41
-9131.84
-8525.21
-7130.03
-7128.06
-8519.27
-9121.95
-9422.58
-9589.87
-9690.36
-9753.74
-9794.78
-9821.52
-9838.67
-9849.15
-9854.85
-9857.07
-9856.69
-9854.36
-9850.55
-9845.61
-9839.8
-9833.35
-9826.4
-9819.1
-9811.55
-9803.85
-9796.07
-9788.27
-9780.52
-9772.87
-9765.36
-9758.03
-9750.93
-9744.09
-9737.55
-9731.33
-9725.47
-9720
-9714.93
-9710.3
-9706.11
-9702.41
-9699.19
-9696.48
-9694.28
-9692.62
-9691.48
-9690.89
-9690.83
-9691.31
-9692.33
-9693.88
-9695.95
-9698.53
-9701.61
-9705.16
-9709.18
-9713.64
-9718.51
-9723.79
-9729.43
-9735.42
-9741.72
-9748.31
-9755.16
-9762.23
-9769.5
-9776.94
-9784.51
-9792.19
-9799.94
-9807.73
-9815.53
-9823.31
-9831.04
-9838.68
-9846.2
-9853.57
-9860.74
-9867.68
-9874.33
-9880.64
-9886.54
-9891.97
-9896.81
-9900.96
-9904.25
-9906.5
-9907.45
-9906.76
-9903.97
-9898.46
-9889.34
-9875.35
-9854.58
-9824.14
-9779.32
-9712.11
-9607.73
-9436.52
-9131.93
-8525.27
-7130.05
-7127.93
-8518.88
-9121.3
-9421.65
-9588.65
-9688.83
-9751.89
-9792.6
-9818.98
-9835.76
-9845.84
-9851.14
-9852.93
-9852.11
-9849.32
-9845.05
-9839.63
-9833.35
-9826.4
-9818.97
-9811.17
-9803.13
-9794.94
-9786.67
-9778.4
-9770.17
-9762.06
-9754.09
-9746.33
-9738.8
-9731.56
-9724.62
-9718.03
-9711.82
-9706.02
-9700.65
-9695.74
-9691.31
-9687.38
-9683.97
-9681.09
-9678.76
-9676.99
-9675.78
-9675.15
-9675.08
-9675.59
-9676.67
-9678.3
-9680.49
-9683.22
-9686.47
-9690.23
-9694.48
-9699.2
-9704.36
-9709.94
-9715.91
-9722.25
-9728.92
-9735.9
-9743.15
-9750.64
-9758.34
-9766.22
-9774.23
-9782.36
-9790.57
-9798.82
-9807.09
-9815.33
-9823.52
-9831.62
-9839.59
-9847.4
-9855.02
-9862.38
-9869.45
-9876.17
-9882.48
-9888.29
-9893.5
-9898
-9901.63
-9904.2
-9905.45
-9905.04
-9902.51
-9897.24
-9888.34
-9874.53
-9853.93
-9823.64
-9778.94
-9711.83
-9607.54
-9436.39
-9131.85
-8525.22
-7130.04
-7127.77
-8518.42
-9120.51
-9420.54
-9587.2
-9687.04
-9749.75
-9790.08
-9816.08
-9832.45
-9842.12
-9846.99
-9848.34
-9847.06
-9843.82
-9839.07
-9833.17
-9826.4
-9818.97
-9811.04
-9802.75
-9794.22
-9785.53
-9776.78
-9768.02
-9759.33
-9750.75
-9742.33
-9734.13
-9726.18
-9718.52
-9711.2
-9704.24
-9697.68
-9691.55
-9685.88
-9680.69
-9676
-9671.85
-9668.25
-9665.21
-9662.74
-9660.87
-9659.59
-9658.92
-9658.84
-9659.37
-9660.5
-9662.22
-9664.53
-9667.4
-9670.83
-9674.8
-9679.28
-9684.25
-9689.7
-9695.59
-9701.89
-9708.58
-9715.62
-9722.98
-9730.63
-9738.54
-9746.66
-9754.97
-9763.44
-9772.02
-9780.68
-9789.39
-9798.12
-9806.82
-9815.47
-9824.03
-9832.45
-9840.71
-9848.76
-9856.56
-9864.05
-9871.19
-9877.89
-9884.08
-9889.67
-9894.53
-9898.51
-9901.4
-9902.96
-9902.84
-9900.59
-9895.57
-9886.9
-9873.31
-9852.91
-9822.79
-9778.25
-9711.28
-9607.11
-9436.07
-9131.63
-8525.1
-7130
-7127.6
-8517.89
-9119.63
-9419.3
-9585.6
-9685.06
-9747.38
-9787.32
-9812.91
-9828.86
-9838.1
-9842.52
-9843.42
-9841.69
-9837.97
-9832.74
-9826.36
-9819.1
-9811.17
-9802.75
-9793.97
-9784.94
-9775.77
-9766.53
-9757.29
-9748.13
-9739.08
-9730.22
-9721.57
-9713.2
-9705.14
-9697.43
-9690.1
-9683.19
-9676.74
-9670.76
-9665.3
-9660.36
-9655.99
-9652.19
-9648.98
-9646.39
-9644.41
-9643.06
-9642.34
-9642.26
-9642.81
-9644
-9645.8
-9648.22
-9651.24
-9654.85
-9659.01
-9663.73
-9668.96
-9674.69
-9680.88
-9687.51
-9694.54
-9701.95
-9709.69
-9717.74
-9726.06
-9734.61
-9743.36
-9752.26
-9761.29
-9770.41
-9779.58
-9788.77
-9797.93
-9807.04
-9816.05
-9824.92
-9833.63
-9842.12
-9850.35
-9858.26
-9865.8
-9872.91
-9879.49
-9885.45
-9890.67
-9895
-9898.22
-9900.1
-9900.28
-9898.31
-9893.56
-9885.14
-9871.78
-9851.6
-9821.68
-9777.33
-9710.52
-9606.51
-9435.61
-9131.31
-8524.91
-7129.94
-7127.41
-8517.32
-9118.69
-9417.97
-9583.88
-9682.95
-9744.86
-9784.38
-9809.55
-9825.07
-9833.86
-9837.83
-9838.27
-9836.07
-9831.88
-9826.17
-9819.3
-9811.55
-9803.13
-9794.22
-9784.94
-9775.43
-9765.77
-9756.04
-9746.33
-9736.69
-9727.19
-9717.87
-9708.8
-9700
-9691.54
-9683.44
-9675.74
-9668.49
-9661.71
-9655.43
-9649.69
-9644.51
-9639.92
-9635.92
-9632.55
-9629.82
-9627.74
-9626.32
-9625.56
-9625.47
-9626.04
-9627.28
-9629.17
-9631.7
-9634.87
-9638.64
-9643.01
-9647.95
-9653.44
-9659.45
-9665.94
-9672.9
-9680.27
-9688.04
-9696.17
-9704.61
-9713.34
-9722.31
-9731.49
-9740.84
-9750.31
-9759.88
-9769.51
-9779.15
-9788.77
-9798.33
-9807.79
-9817.12
-9826.27
-9835.19
-9843.85
-9852.18
-9860.13
-9867.64
-9874.61
-9880.95
-9886.53
-9891.2
-9894.77
-9896.96
-9897.45
-9895.77
-9891.3
-9883.14
-9870.03
-9850.07
-9820.37
-9776.22
-9709.61
-9605.78
-9435.06
-9130.92
-8524.67
-7129.86
-7127.21
-8516.73
-9117.69
-9416.57
-9582.08
-9680.73
-9742.22
-9781.32
-9806.05
-9821.13
-9829.48
-9833
-9832.97
-9830.3
-9825.63
-9819.44
-9812.09
-9803.85
-9794.94
-9785.53
-9775.77
-9765.77
-9755.62
-9745.41
-9735.23
-9725.13
-9715.17
-9705.41
-9695.9
-9686.69
-9677.82
-9669.34
-9661.28
-9653.68
-9646.58
-9640.01
-9633.99
-9628.57
-9623.75
-9619.57
-9616.03
-9613.17
-9610.98
-9609.49
-9608.69
-9608.59
-9609.18
-9610.47
-9612.44
-9615.09
-9618.39
-9622.34
-9626.91
-9632.07
-9637.81
-9644.09
-9650.89
-9658.16
-9665.88
-9674.01
-9682.51
-9691.35
-9700.48
-9709.87
-9719.47
-9729.26
-9739.17
-9749.19
-9759.27
-9769.36
-9779.43
-9789.44
-9799.35
-9809.13
-9818.71
-9828.07
-9837.15
-9845.9
-9854.27
-9862.17
-9869.52
-9876.24
-9882.18
-9887.2
-9891.11
-9893.63
-9894.43
-9893.04
-9888.85
-9880.96
-9868.1
-9848.39
-9818.92
-9774.99
-9708.59
-9604.96
-9434.43
-9130.47
-8524.41
-7129.77
-7127.01
-8516.12
-9116.67
-9415.14
-9580.22
-9678.46
-9739.52
-9778.19
-9802.48
-9817.12
-9825.01
-9828.07
-9827.58
-9824.44
-9819.29
-9812.63
-9804.79
-9796.07
-9786.67
-9776.78
-9766.53
-9756.04
-9745.41
-9734.74
-9724.08
-9713.52
-9703.11
-9692.91
-9682.98
-9673.35
-9664.09
-9655.23
-9646.81
-9638.87
-9631.45
-9624.58
-9618.3
-9612.62
-9607.59
-9603.21
-9599.52
-9596.52
-9594.23
-9592.67
-9591.82
-9591.71
-9592.32
-9593.66
-9595.72
-9598.47
-9601.92
-9606.03
-9610.8
-9616.19
-9622.17
-9628.72
-9635.81
-9643.4
-9651.46
-9659.94
-9668.82
-9678.04
-9687.57
-9697.37
-9707.4
-9717.61
-9727.97
-9738.43
-9748.94
-9759.48
-9770
-9780.46
-9790.82
-9801.03
-9811.05
-9820.84
-9830.34
-9839.5
-9848.27
-9856.56
-9864.3
-9871.39
-9877.7
-9883.07
-9887.31
-9890.15
-9891.26
-9890.18
-9886.27
-9878.66
-9866.06
-9846.6
-9817.37
-9773.67
-9707.49
-9604.07
-9433.74
-9129.99
-8524.12
-7129.67
-7126.8
-8515.5
-9115.63
-9413.68
-9578.35
-9676.15
-9736.79
-9775.02
-9798.87
-9813.06
-9820.51
-9823.11
-9822.15
-9818.54
-9812.93
-9805.79
-9797.48
-9788.27
-9778.4
-9768.02
-9757.29
-9746.33
-9735.23
-9724.08
-9712.97
-9701.95
-9691.1
-9680.46
-9670.11
-9660.08
-9650.42
-9641.19
-9632.41
-9624.14
-9616.4
-9609.24
-9602.69
-9596.78
-9591.53
-9586.96
-9583.11
-9579.98
-9577.59
-9575.95
-9575.06
-9574.94
-9575.57
-9576.96
-9579.09
-9581.95
-9585.54
-9589.82
-9594.77
-9600.38
-9606.61
-9613.43
-9620.81
-9628.71
-9637.1
-9645.93
-9655.17
-9664.77
-9674.7
-9684.91
-9695.35
-9705.98
-9716.77
-9727.66
-9738.62
-9749.6
-9760.56
-9771.46
-9782.25
-9792.89
-9803.34
-9813.55
-9823.47
-9833.04
-9842.21
-9850.89
-9859.01
-9866.47
-9873.13
-9878.85
-9883.42
-9886.59
-9888.01
-9887.23
-9883.61
-9876.27
-9863.94
-9844.74
-9815.75
-9772.29
-9706.33
-9603.13
-9433.02
-9129.48
-8523.81
-7129.57
-7126.59
-8514.87
-9114.59
-9412.22
-9576.46
-9673.85
-9734.05
-9771.85
-9795.26
-9809.01
-9816
-9818.15
-9816.74
-9812.67
-9806.59
-9798.98
-9790.2
-9780.52
-9770.17
-9759.33
-9748.13
-9736.69
-9725.13
-9713.52
-9701.95
-9690.49
-9679.2
-9668.14
-9657.37
-9646.94
-9636.9
-9627.29
-9618.17
-9609.57
-9601.52
-9594.08
-9587.26
-9581.11
-9575.65
-9570.9
-9566.88
-9563.62
-9561.13
-9559.42
-9558.5
-9558.36
-9559.01
-9560.44
-9562.65
-9565.62
-9569.33
-9573.78
-9578.92
-9584.74
-9591.21
-9598.29
-9605.96
-9614.16
-9622.87
-9632.05
-9641.65
-9651.62
-9661.94
-9672.54
-9683.39
-9694.44
-9705.65
-9716.97
-9728.36
-9739.77
-9751.16
-9762.49
-9773.71
-9784.78
-9795.66
-9806.28
-9816.61
-9826.58
-9836.14
-9845.21
-9853.7
-9861.52
-9868.54
-9874.6
-9879.5
-9882.99
-9884.72
-9884.24
-9880.9
-9873.84
-9861.78
-9842.83
-9814.09
-9770.87
-9705.14
-9602.17
-9432.28
-9128.95
-8523.5
-7129.47
-7126.38
-8514.25
-9113.56
-9410.77
-9574.59
-9671.55
-9731.33
-9768.7
-9791.68
-9804.99
-9811.54
-9813.24
-9811.38
-9806.86
-9800.32
-9792.25
-9783.01
-9772.87
-9762.06
-9750.75
-9739.08
-9727.19
-9715.17
-9703.11
-9691.1
-9679.2
-9667.48
-9656
-9644.83
-9634.01
-9623.59
-9613.63
-9604.16
-9595.23
-9586.89
-9579.16
-9572.09
-9565.7
-9560.03
-9555.09
-9550.93
-9547.54
-9544.95
-9543.16
-9542.2
-9542.05
-9542.71
-9544.19
-9546.47
-9549.54
-9553.39
-9557.99
-9563.32
-9569.34
-9576.05
-9583.38
-9591.33
-9599.83
-9608.86
-9618.37
-9628.32
-9638.66
-9649.35
-9660.34
-9671.59
-9683.05
-9694.67
-9706.41
-9718.22
-9730.06
-9741.87
-9753.62
-9765.27
-9776.75
-9788.04
-9799.07
-9809.8
-9820.16
-9830.1
-9839.55
-9848.41
-9856.59
-9863.95
-9870.35
-9875.58
-9879.38
-9881.42
-9881.23
-9878.18
-9871.39
-9859.6
-9840.9
-9812.41
-9769.43
-9703.94
-9601.19
-9431.52
-9128.41
-8523.18
-7129.36
-7126.18
-8513.64
-9112.53
-9409.34
-9572.74
-9669.29
-9728.65
-9765.6
-9788.15
-9801.03
-9807.15
-9808.42
-9806.12
-9801.15
-9794.17
-9785.64
-9775.95
-9765.36
-9754.09
-9742.33
-9730.22
-9717.87
-9705.41
-9692.91
-9680.46
-9668.14
-9656
-9644.12
-9632.55
-9621.35
-9610.56
-9600.25
-9590.44
-9581.2
-9572.56
-9564.56
-9557.23
-9550.62
-9544.74
-9539.63
-9535.31
-9531.8
-9529.11
-9527.25
-9526.24
-9526.08
-9526.76
-9528.28
-9530.64
-9533.81
-9537.78
-9542.53
-9548.03
-9554.27
-9561.19
-9568.78
-9576.99
-9585.79
-9595.13
-9604.96
-9615.25
-9625.95
-9637.01
-9648.38
-9660.02
-9671.87
-9683.9
-9696.04
-9708.26
-9720.51
-9732.74
-9744.9
-9756.96
-9768.85
-9780.54
-9791.96
-9803.08
-9813.83
-9824.15
-9833.96
-9843.18
-9851.71
-9859.41
-9866.14
-9871.69
-9875.81
-9878.14
-9878.24
-9875.47
-9868.96
-9857.42
-9838.98
-9810.73
-9767.99
-9702.73
-9600.21
-9430.77
-9127.88
-8522.86
-7129.25
-7125.98
-8513.04
-9111.53
-9407.93
-9570.94
-9667.08
-9726.03
-9762.56
-9784.71
-9797.16
-9802.86
-9803.7
-9800.97
-9795.57
-9788.15
-9779.2
-9769.06
-9758.03
-9746.33
-9734.13
-9721.57
-9708.8
-9695.9
-9682.98
-9670.11
-9657.37
-9644.83
-9632.55
-9620.6
-9609.02
-9597.88
-9587.22
-9577.09
-9567.54
-9558.62
-9550.35
-9542.78
-9535.94
-9529.86
-9524.58
-9520.11
-9516.47
-9513.69
-9511.76
-9510.71
-9510.53
-9511.23
-9512.79
-9515.21
-9518.48
-9522.57
-9527.47
-9533.15
-9539.57
-9546.72
-9554.55
-9563.02
-9572.1
-9581.73
-9591.89
-9602.51
-9613.55
-9624.97
-9636.71
-9648.72
-9660.96
-9673.38
-9685.92
-9698.54
-9711.18
-9723.81
-9736.38
-9748.83
-9761.12
-9773.19
-9785.01
-9796.51
-9807.63
-9818.31
-9828.48
-9838.05
-9846.92
-9854.95
-9862
-9867.86
-9872.28
-9874.91
-9875.29
-9872.8
-9866.55
-9855.27
-9837.08
-9809.07
-9766.57
-9701.54
-9599.24
-9430.02
-9127.34
-8522.54
-7129.15
-7125.78
-8512.46
-9110.56
-9406.57
-9569.18
-9664.93
-9723.49
-9759.62
-9781.36
-9793.41
-9798.7
-9799.13
-9795.98
-9790.16
-9782.33
-9772.95
-9762.39
-9750.93
-9738.8
-9726.18
-9713.2
-9700
-9686.69
-9673.35
-9660.08
-9646.94
-9634.01
-9621.35
-9609.02
-9597.09
-9585.6
-9574.61
-9564.17
-9554.32
-9545.11
-9536.59
-9528.78
-9521.72
-9515.45
-9510
-9505.38
-9501.63
-9498.75
-9496.76
-9495.67
-9495.47
-9496.18
-9497.78
-9500.27
-9503.62
-9507.83
-9512.87
-9518.72
-9525.33
-9532.69
-9540.75
-9549.48
-9558.82
-9568.75
-9579.21
-9590.15
-9601.52
-9613.28
-9625.38
-9637.76
-9650.37
-9663.16
-9676.08
-9689.09
-9702.12
-9715.14
-9728.09
-9740.93
-9753.6
-9766.05
-9778.24
-9790.11
-9801.59
-9812.63
-9823.14
-9833.05
-9842.25
-9850.6
-9857.96
-9864.13
-9868.84
-9871.75
-9872.41
-9870.18
-9864.19
-9853.16
-9835.21
-9807.45
-9765.17
-9700.36
-9598.29
-9429.28
-9126.82
-8522.22
-7129.04
-7125.6
-8511.89
-9109.62
-9405.26
-9567.49
-9662.86
-9721.03
-9756.78
-9778.13
-9789.79
-9794.69
-9794.72
-9791.17
-9784.95
-9776.71
-9766.92
-9755.96
-9744.09
-9731.56
-9718.52
-9705.14
-9691.54
-9677.82
-9664.09
-9650.42
-9636.9
-9623.59
-9610.56
-9597.88
-9585.6
-9573.78
-9562.47
-9551.73
-9541.59
-9532.11
-9523.34
-9515.3
-9508.04
-9501.58
-9495.96
-9491.21
-9487.34
-9484.37
-9482.31
-9481.18
-9480.97
-9481.69
-9483.32
-9485.87
-9489.32
-9493.64
-9498.81
-9504.81
-9511.61
-9519.17
-9527.45
-9536.42
-9546.03
-9556.23
-9566.98
-9578.23
-9589.92
-9602.01
-9614.45
-9627.18
-9640.15
-9653.3
-9666.59
-9679.97
-9693.37
-9706.76
-9720.09
-9733.29
-9746.33
-9759.15
-9771.7
-9783.92
-9795.75
-9807.12
-9817.97
-9828.21
-9837.72
-9846.38
-9854.05
-9860.5
-9865.49
-9868.68
-9869.61
-9867.64
-9861.89
-9851.11
-9833.4
-9805.86
-9763.81
-9699.22
-9597.36
-9428.56
-9126.31
-8521.92
-7128.94
-7125.42
-8511.35
-9108.73
-9404
-9565.87
-9660.87
-9718.68
-9754.06
-9775.04
-9786.33
-9790.84
-9790.5
-9786.57
-9779.96
-9771.34
-9761.16
-9749.81
-9737.55
-9724.62
-9711.2
-9697.43
-9683.44
-9669.34
-9655.23
-9641.19
-9627.29
-9613.63
-9600.25
-9587.22
-9574.61
-9562.47
-9550.86
-9539.82
-9529.41
-9519.68
-9510.66
-9502.4
-9494.94
-9488.3
-9482.53
-9477.64
-9473.66
-9470.6
-9468.48
-9467.3
-9467.08
-9467.81
-9469.48
-9472.09
-9475.61
-9480.04
-9485.34
-9491.49
-9498.46
-9506.21
-9514.71
-9523.91
-9533.76
-9544.23
-9555.26
-9566.8
-9578.8
-9591.21
-9603.97
-9617.03
-9630.34
-9643.84
-9657.48
-9671.21
-9684.98
-9698.72
-9712.4
-9725.96
-9739.35
-9752.52
-9765.41
-9777.97
-9790.13
-9801.83
-9813
-9823.55
-9833.36
-9842.32
-9850.27
-9857.01
-9862.27
-9865.73
-9866.9
-9865.18
-9859.68
-9849.13
-9831.65
-9804.33
-9762.49
-9698.12
-9596.46
-9427.87
-9125.81
-8521.62
-7128.84
-7125.25
-8510.84
-9107.87
-9402.8
-9564.33
-9658.98
-9716.44
-9751.47
-9772.1
-9783.03
-9787.19
-9786.48
-9782.19
-9775.22
-9766.23
-9755.68
-9743.96
-9731.33
-9718.03
-9704.24
-9690.1
-9675.74
-9661.28
-9646.81
-9632.41
-9618.17
-9604.16
-9590.44
-9577.09
-9564.17
-9551.73
-9539.82
-9528.51
-9517.84
-9507.86
-9498.61
-9490.14
-9482.49
-9475.68
-9469.76
-9464.74
-9460.65
-9457.51
-9455.32
-9454.11
-9453.87
-9454.61
-9456.31
-9458.97
-9462.57
-9467.1
-9472.52
-9478.82
-9485.95
-9493.88
-9502.58
-9511.99
-9522.08
-9532.8
-9544.1
-9555.91
-9568.2
-9580.91
-9593.98
-9607.36
-9621
-9634.83
-9648.8
-9662.87
-9676.97
-9691.06
-9705.07
-9718.97
-9732.69
-9746.19
-9759.41
-9772.29
-9784.77
-9796.78
-9808.25
-9819.09
-9829.2
-9838.44
-9846.67
-9853.67
-9859.19
-9862.9
-9864.32
-9862.84
-9857.56
-9847.24
-9829.97
-9802.86
-9761.23
-9697.06
-9595.6
-9427.2
-9125.34
-8521.34
-7128.75