/*--------------------------------*- C++ -*----------------------------------*\
  =========                 |
  \\      /  F ield         | OpenFOAM: The Open Source CFD Toolbox
   \\    /   O peration     | Website:  https://openfoam.org
    \\  /    A nd           | Version:  9
     \\/     M anipulation  |
\*---------------------------------------------------------------------------*/
FoamFile
{
    format      ascii;
    class       volScalarField;
    location    "0.35";
    object      gradTx;
}
// * * * * * * * * * * * * * * * * * * * * * * * * * * * * * * * * * * * * * //

dimensions      [0 -1 0 1 0 0 0];

internalField   nonuniform List<scalar> 
200000
(
5100.79
2375.05
1451.84
1044.64
824.073
687.001
593.913
526.833
476.435
437.381
406.38
381.282
360.618
343.336
328.666
316.019
304.938
295.058
286.084
277.769
269.908
262.328
254.879
247.437
239.892
232.152
224.139
215.789
207.049
197.879
188.247
178.133
167.527
156.428
144.842
132.786
120.282
107.361
94.0611
80.4246
66.5004
52.3419
38.0065
23.5549
9.05056
-5.44156
-19.8553
-34.1244
-48.1829
-61.9662
-75.4118
-88.4598
-101.054
-113.14
-124.673
-135.607
-145.906
-155.539
-164.479
-172.71
-180.218
-187
-193.058
-198.401
-203.047
-207.019
-210.349
-213.076
-215.246
-216.91
-218.129
-218.97
-219.507
-219.822
-220.002
-220.148
-220.364
-220.769
-221.492
-222.676
-224.483
-227.096
-230.726
-235.621
-242.078
-250.457
-261.212
-274.921
-292.348
-314.532
-342.934
-379.691
-428.083
-493.436
-585.068
-720.941
-940.559
-1347.06
-2269.8
-4995.31
10268.4
6005.88
4053.5
3031.06
2428.37
2038.7
1768.9
1572.47
1423.99
1308.47
1216.53
1141.96
1080.47
1028.98
985.239
947.5
914.412
884.894
858.066
833.196
809.675
786.983
764.678
742.382
719.772
696.572
672.55
647.512
621.301
593.795
564.901
534.561
502.741
469.439
434.677
398.501
360.981
322.209
282.298
241.377
199.591
157.102
114.082
70.7124
27.1841
-16.3078
-59.5648
-102.388
-144.579
-185.945
-226.297
-265.456
-303.251
-339.526
-374.136
-406.951
-437.861
-466.769
-493.601
-518.301
-540.834
-561.186
-579.364
-595.397
-609.336
-621.253
-631.243
-639.421
-645.925
-650.911
-654.559
-657.07
-658.666
-659.591
-660.112
-660.522
-661.14
-662.318
-664.441
-667.94
-673.296
-681.055
-691.847
-706.408
-725.62
-750.554
-782.548
-823.311
-875.089
-940.923
-1025.06
-1133.68
-1276.15
-1467.4
-1732.82
-2118.9
-2718.74
-3739.07
-5690.05
-9951.87
13481.7
8704.63
6237.54
4819.77
3930.54
3332.85
2908.97
2595.62
2356.39
2169
2019.13
1897.13
1796.25
1711.62
1639.58
1577.34
1522.7
1473.9
1429.5
1388.3
1349.3
1311.64
1274.59
1237.54
1199.94
1161.34
1121.35
1079.66
1036.01
990.181
942.035
891.469
838.431
782.916
724.96
664.643
602.083
537.432
470.877
402.635
332.951
262.091
190.343
118.012
45.4146
-27.1232
-99.2702
-170.694
-241.065
-310.059
-377.364
-442.678
-505.719
-566.224
-623.951
-678.685
-730.239
-778.456
-823.208
-864.404
-901.984
-935.924
-966.237
-992.971
-1016.21
-1036.07
-1052.72
-1066.34
-1077.16
-1085.45
-1091.5
-1095.64
-1098.26
-1099.74
-1100.53
-1101.13
-1102.06
-1103.9
-1107.29
-1112.95
-1121.66
-1134.33
-1151.99
-1175.85
-1207.35
-1248.24
-1300.69
-1367.45
-1452.12
-1559.55
-1696.41
-1872.31
-2101.51
-2406.22
-2822.81
-3414.51
-4298.99
-5713.24
-8177.99
-12953.9
15773.7
10791.6
8060.96
6399.44
5308.5
4550.2
3999.5
3585.59
3265.82
3013.21
2809.9
2643.6
2505.59
2389.45
2290.34
2204.54
2129.07
2061.56
2000.04
1942.87
1888.68
1836.29
1784.7
1733.04
1680.58
1626.68
1570.81
1512.52
1451.46
1387.34
1319.95
1249.16
1174.9
1097.15
1015.98
931.489
843.847
753.269
660.018
564.399
466.753
367.456
266.912
165.547
63.8058
-37.8536
-138.967
-239.069
-337.697
-434.396
-528.728
-620.272
-708.629
-793.432
-874.341
-951.056
-1023.31
-1090.89
-1153.61
-1211.35
-1264.01
-1311.57
-1354.04
-1391.49
-1424.04
-1451.85
-1475.15
-1494.2
-1509.31
-1520.87
-1529.27
-1535
-1538.55
-1540.5
-1541.47
-1542.13
-1543.21
-1545.54
-1549.98
-1557.53
-1569.29
-1586.48
-1610.54
-1643.12
-1686.17
-1742.06
-1813.71
-1904.81
-2020.14
-2166.02
-2351.11
-2587.62
-2893.33
-3295.14
-3835.62
-4585.53
-5669.83
-7326.41
-10053.8
-15034.3
17557.4
12479.8
9605.93
7793.16
6563.16
5684.84
5033.47
4536.01
4147.04
3836.92
3585.56
3378.82
3206.48
3060.93
2936.36
2828.22
2732.89
2647.43
2569.39
2496.74
2427.76
2360.96
2295.08
2229.02
2161.86
2092.79
2021.14
1946.34
1867.93
1785.55
1698.95
1607.94
1512.44
1412.44
1308.01
1199.3
1086.52
969.95
849.932
726.855
601.163
473.339
343.903
213.406
82.4202
-48.4645
-178.65
-307.535
-434.525
-559.034
-680.496
-798.369
-912.141
-1021.33
-1125.52
-1224.3
-1317.33
-1404.34
-1485.1
-1559.43
-1627.23
-1688.45
-1743.12
-1791.31
-1833.18
-1868.95
-1898.88
-1923.34
-1942.72
-1957.49
-1968.19
-1975.41
-1979.81
-1982.11
-1983.1
-1983.65
-1984.69
-1987.25
-1992.46
-2001.55
-2015.93
-2037.14
-2066.96
-2107.47
-2161.09
-2230.73
-2319.98
-2433.31
-2576.45
-2756.92
-2984.84
-3274.24
-3645.12
-4127.01
-4765.24
-5632.76
-6854.21
-8660.62
-11530.3
-16605.8
19026.2
13898.1
10941.1
9032.06
7706.12
6739.29
6009.58
5444.29
4997.21
4637.53
4343.86
4100.91
3897.42
3724.87
3576.69
3447.66
3333.61
3231.1
3137.28
3049.75
2966.45
2885.63
2805.78
2725.59
2643.95
2559.88
2472.57
2381.35
2285.67
2185.08
2079.28
1968.06
1851.31
1729.02
1601.3
1468.31
1330.32
1187.69
1040.81
890.18
736.335
579.872
421.426
261.674
101.318
-58.9211
-218.309
-376.11
-531.593
-684.042
-832.763
-977.091
-1116.4
-1250.1
-1377.67
-1498.61
-1612.53
-1719.07
-1817.94
-1908.94
-1991.94
-2066.87
-2133.77
-2192.74
-2243.95
-2287.67
-2324.24
-2354.08
-2377.67
-2395.61
-2408.52
-2417.14
-2422.26
-2424.76
-2425.6
-2425.82
-2426.57
-2429.06
-2434.67
-2444.88
-2461.36
-2485.96
-2520.79
-2568.29
-2631.3
-2713.23
-2818.21
-2951.33
-3119.1
-3329.91
-3594.9
-3929.24
-4354.18
-4900.42
-5614.06
-6567.67
-7883.15
-9784.41
-12736.2
-17861.8
20283.1
15125.6
12117.4
10145.2
8752.26
7720.25
6930.16
6310.57
5815.51
5413.82
5083.55
4808.72
4577.39
4380.41
4210.62
4062.3
3930.8
3812.27
3703.5
3601.76
3504.7
3410.31
3316.87
3222.85
3126.96
3028.09
2925.28
2817.76
2704.88
2586.15
2461.18
2329.75
2191.74
2047.14
1896.07
1738.74
1575.47
1406.67
1232.83
1054.53
872.41
687.176
499.583
310.432
120.556
-69.1882
-257.932
-444.802
-628.933
-809.476
-985.606
-1156.54
-1321.52
-1479.87
-1630.95
-1774.19
-1909.11
-2035.27
-2152.36
-2260.12
-2358.38
-2447.1
-2526.28
-2596.05
-2656.62
-2708.31
-2751.49
-2786.68
-2814.45
-2835.47
-2850.51
-2860.41
-2866.11
-2868.64
-2869.11
-2868.76
-2868.91
-2870.99
-2876.58
-2887.41
-2905.4
-2932.67
-2971.64
-3025.08
-3096.19
-3188.79
-3307.44
-3457.78
-3646.84
-3883.64
-4179.98
-4551.68
-5020.56
-5617.61
-6388.68
-7405.05
-8785.57
-10748.6
-13750.8
-18905.2
21389
16213.1
13171.7
11156.6
9716.2
8635.98
7799.5
7136.8
6602.54
6165.72
5804.2
5501.68
5245.81
5027.01
4837.7
4671.76
4524.15
4390.71
4267.88
4152.66
4042.45
3935.01
3828.37
3720.86
3611.01
3497.55
3379.42
3255.74
3125.76
2988.94
2844.85
2693.22
2533.93
2366.98
2192.51
2010.76
1822.12
1627.05
1426.14
1220.04
1009.51
795.358
578.463
359.752
140.191
-79.2299
-297.502
-513.617
-726.569
-935.377
-1139.09
-1336.79
-1527.61
-1710.76
-1885.51
-2051.18
-2207.22
-2353.14
-2488.55
-2613.16
-2726.78
-2829.34
-2920.86
-3001.48
-3071.44
-3131.08
-3180.88
-3221.38
-3253.27
-3277.3
-3294.35
-3305.4
-3311.51
-3313.87
-3313.75
-3312.55
-3311.76
-3313.04
-3318.15
-3329.05
-3347.89
-3377.06
-3419.23
-3477.47
-3555.3
-3656.86
-3787.09
-3952
-4159.04
-4417.63
-4739.95
-5142.13
-5646.13
-6282.8
-7097.3
-8159.45
-9585.53
-11590
-14624.4
-19796.8
22382.4
17194.4
14130.5
12085.5
10611
9494.81
8622.67
7925.88
7359.86
6893.93
6506.02
6179.72
5902.47
5664.4
5457.64
5275.76
5113.45
4966.23
4830.29
4702.38
4579.66
4459.69
4340.31
4219.67
4096.15
3968.36
3835.1
3695.39
3548.43
3393.59
3230.42
3058.61
2878.03
2688.69
2490.76
2284.53
2070.42
1848.98
1620.86
1386.83
1147.74
904.509
658.144
409.698
160.271
-89.0104
-336.999
-582.546
-824.509
-1061.77
-1293.25
-1517.89
-1734.74
-1942.86
-2141.42
-2329.69
-2507
-2672.8
-2826.64
-2968.21
-3097.28
-3213.77
-3317.69
-3409.19
-3488.56
-3556.17
-3612.56
-3658.34
-3694.28
-3721.24
-3740.2
-3752.25
-3758.6
-3760.57
-3759.6
-3757.23
-3755.16
-3755.2
-3759.34
-3769.73
-3788.73
-3818.96
-3863.36
-3925.22
-4008.34
-4117.14
-4256.85
-4433.76
-4655.6
-4932.04
-5275.45
-5702.08
-6233.77
-6901.01
-7748.21
-8843.86
-10302.2
-12335.2
-15391.1
-20575.1
23289.4
18093.1
15013.5
12947.2
11447.6
10304.4
9404.83
8681.15
8089.51
7599.64
7189.66
6843.15
6547.45
6292.55
6070.35
5874.2
5698.55
5538.7
5390.61
5250.81
5116.26
4984.32
4852.67
4719.29
4582.42
4440.54
4292.36
4136.8
3972.97
3800.2
3617.99
3426.02
3224.14
3012.39
2790.94
2560.14
2320.47
2072.54
1817.1
1554.99
1287.17
1014.7
738.69
460.327
180.843
-98.4928
-376.395
-651.574
-922.748
-1188.66
-1448.1
-1699.89
-1942.93
-2176.2
-2398.76
-2609.77
-2808.5
-2994.32
-3166.74
-3325.38
-3469.99
-3600.48
-3716.86
-3819.3
-3908.1
-3983.69
-4046.65
-4097.67
-4137.6
-4167.38
-4188.12
-4201.02
-4207.42
-4208.78
-4206.68
-4202.83
-4199.09
-4197.46
-4200.1
-4209.36
-4227.8
-4258.26
-4303.88
-4368.18
-4455.18
-4569.53
-4716.68
-4903.13
-5136.8
-5427.51
-5787.71
-6233.57
-6786.79
-7477.41
-8349.12
-9469.31
-10950.8
-13003.6
-16074.2
-21266.1
24128.3
18926
15835.3
13753.5
12235.3
11071.7
10150.9
9405.98
8793.78
8284.37
7856.06
7492.52
7181.06
6911.57
6675.83
6467.02
6279.38
6108.03
5948.75
5797.86
5652.16
5508.83
5365.39
5219.67
5069.79
4914.1
4751.21
4579.96
4399.4
4208.79
4007.6
3795.49
3572.31
3338.11
3093.1
2837.66
2572.33
2297.8
2014.89
1724.56
1427.87
1125.99
820.152
511.683
201.95
-107.64
-415.659
-720.674
-1021.26
-1316.03
-1603.63
-1882.75
-2152.19
-2410.8
-2657.53
-2891.46
-3111.76
-3317.75
-3508.86
-3684.68
-3844.94
-3989.52
-4118.42
-4231.84
-4330.1
-4413.67
-4483.18
-4539.4
-4583.24
-4615.76
-4638.16
-4651.75
-4658
-4658.5
-4654.99
-4649.33
-4643.53
-4639.76
-4640.37
-4647.88
-4665.04
-4694.87
-4740.71
-4806.28
-4895.78
-5014.06
-5166.72
-5360.43
-5603.23
-5905
-6278.21
-6738.93
-7308.61
-8016.9
-8906.85
-10045
-11543.1
-13610
-16690.9
-21888.2
24912.3
19705.8
16606.9
14513.7
12981.5
11802.4
10865.2
10103.6
9474.97
8949.68
8506.27
8128.5
7803.7
7521.71
7274.2
7054.22
6855.89
6674.15
6504.61
6343.44
6187.26
6033.11
5878.36
5720.72
5558.16
5388.95
5211.59
5024.83
4827.67
4619.32
4399.22
4167
3922.53
3665.86
3397.24
3117.08
2826.01
2524.76
2214.27
1895.58
1569.86
1238.4
902.561
563.802
223.627
-116.414
-454.751
-789.805
-1120.01
-1443.84
-1759.8
-2066.46
-2362.48
-2646.61
-2917.69
-3174.7
-3416.73
-3643.03
-3852.97
-4046.09
-4222.1
-4380.84
-4522.34
-4646.79
-4754.53
-4846.08
-4922.12
-4983.49
-5031.18
-5066.33
-5090.24
-5104.36
-5110.25
-5109.66
-5104.45
-5096.63
-5088.38
-5082.02
-5080.06
-5085.2
-5100.36
-5128.73
-5173.82
-5239.52
-5330.21
-5450.86
-5607.24
-5806.12
-6055.62
-6365.64
-6748.61
-7220.5
-7802.51
-8523.94
-9427.33
-10578.6
-12088.7
-14165.5
-17253.6
-22454.7
25651.5
20441.9
17336.9
15235.2
13692.6
12501.6
11551.6
10777
10135.3
9597.16
9141.4
8751.85
8415.86
8123.23
7865.58
7635.85
7428.04
7236.96
7058.06
6887.38
6721.4
6557.01
6391.44
6222.28
6047.4
5864.95
5673.35
5471.28
5257.67
5031.69
4792.75
4540.47
4274.72
3995.57
3703.29
3398.37
3081.46
2753.41
2415.22
2068.03
1713.14
1351.94
985.933
616.706
245.906
-124.777
-493.626
-858.917
-1218.94
-1572.03
-1916.54
-2250.93
-2573.72
-2883.55
-3179.15
-3459.4
-3723.32
-3970.07
-4198.96
-4409.5
-4601.35
-4774.34
-4928.5
-5064.01
-5181.26
-5280.79
-5363.34
-5429.82
-5481.27
-5518.96
-5544.26
-5558.72
-5564.06
-5562.13
-5554.93
-5544.62
-5533.52
-5524.11
-5519.06
-5521.21
-5533.66
-5559.76
-5603.17
-5667.93
-5758.55
-5880.16
-6038.61
-6240.77
-6494.8
-6810.61
-7200.58
-7680.56
-8271.53
-9002.5
-9915.62
-11076.3
-12594.9
-14678.8
-17772
-22975.8
26353.4
21141.4
18032
15923.9
14373.4
13173.4
12213.6
11428.7
10776.6
10228.3
9762.52
9363.3
9018
8716.42
8450.11
8211.93
7995.78
7796.34
7608.96
7429.52
7254.38
7080.3
6904.4
6724.14
6537.28
6341.88
6136.29
5919.1
5689.2
5445.71
5188.02
4915.74
4628.73
4327.1
4011.15
3681.41
3338.61
2983.67
2617.67
2241.87
1857.67
1466.59
1070.26
670.406
268.809
-132.692
-532.233
-927.945
-1317.97
-1700.5
-2073.75
-2436.05
-2785.79
-3121.49
-3441.77
-3745.42
-4031.37
-4298.69
-4546.67
-4774.73
-4982.51
-5169.83
-5336.7
-5483.32
-5610.09
-5717.6
-5806.64
-5878.17
-5933.32
-5973.43
-5999.98
-6014.64
-6019.22
-6015.7
-6006.23
-5993.1
-5978.76
-5965.86
-5957.19
-5955.78
-5964.85
-5987.9
-6028.74
-6091.54
-6180.96
-6302.2
-6461.23
-6664.97
-6921.63
-7241.11
-7635.73
-8121.22
-8718.42
-9456.06
-10376
-11543.3
-13067.8
-15156.7
-18253.4
-23459
27023.8
21810.2
18697.4
16584.5
15028
13821.1
12853.8
12061
11400.8
10844.3
10370.6
9963.51
9610.57
9301.53
9027.89
8782.45
8559.01
8352.14
8157.08
7969.6
7785.93
7602.7
7416.94
7225.98
7027.5
6819.45
6600.11
6368.02
6122
5861.13
5584.79
5292.57
4984.36
4660.26
4320.63
3966.05
3597.3
3215.4
2821.52
2417.01
2003.39
1582.31
1155.53
724.898
292.355
-140.12
-570.515
-996.811
-1417.01
-1829.14
-2231.3
-2621.67
-2998.52
-3360.23
-3705.35
-4032.54
-4340.64
-4628.67
-4895.83
-5141.51
-5365.31
-5567.02
-5746.65
-5904.41
-6040.73
-6156.22
-6251.71
-6328.24
-6387.02
-6429.45
-6457.12
-6471.81
-6475.43
-6470.1
-6458.08
-6441.8
-6423.86
-6407.03
-6394.26
-6388.71
-6393.76
-6413.04
-6450.48
-6510.39
-6597.53
-6717.22
-6875.49
-7079.32
-7336.94
-7658.25
-8055.53
-8544.42
-9145.59
-9887.61
-10812.1
-11983.8
-13512.4
-15604.6
-18703.6
-23910.5
27667.3
22452.4
19337.1
17220.7
15659.7
14447.6
13474.6
12675.7
12009.3
11446.5
10966.4
10553
10193.9
9878.74
9598.97
9347.34
9117.57
8904.13
8702.16
8507.31
8315.7
8123.86
7928.69
7727.44
7517.67
7297.28
7064.45
6817.67
6555.7
6277.61
5982.72
5670.66
5341.3
4994.77
4631.48
4252.04
3857.34
3448.43
3026.61
2593.32
2150.21
1699.03
1241.68
780.164
316.553
-147.024
-608.405
-1065.42
-1515.93
-1957.81
-2389.02
-2807.59
-3211.68
-3599.56
-3969.63
-4320.48
-4650.85
-4959.69
-5246.13
-5509.51
-5749.4
-5965.56
-6158
-6326.92
-6472.79
-6596.24
-6698.17
-6779.65
-6841.97
-6886.62
-6915.29
-6929.84
-6932.32
-6924.95
-6910.11
-6890.38
-6868.48
-6847.32
-6829.99
-6819.78
-6820.21
-6835.03
-6868.32
-6924.49
-7008.39
-7125.44
-7281.75
-7484.35
-7741.49
-8063.07
-8461.33
-8951.83
-9555.15
-10299.7
-11226.9
-12401.3
-13932.4
-16026.8
-19127.3
-24335
28287.4
23071.5
19954.4
17835.4
16271.1
15055.2
14077.9
13274.4
12603.2
12035.6
11550.6
11132.4
10768.3
10448.1
10163.3
9906.46
9671.23
9452.02
9243.85
9042.27
8843.28
8643.33
8439.2
8228.04
8007.34
7774.9
7528.85
7267.59
6989.87
6694.71
6381.42
6049.62
5699.19
5330.3
4943.38
4539.12
4118.45
3682.54
3232.74
2770.64
2297.97
1816.64
1328.66
836.174
341.406
-153.367
-645.835
-1133.68
-1614.6
-2086.33
-2546.7
-2993.59
-3425.03
-3839.17
-4234.3
-4608.9
-4961.64
-5291.37
-5597.16
-5878.31
-6134.34
-6364.99
-6570.26
-6750.38
-6905.79
-7037.2
-7145.52
-7231.89
-7297.69
-7344.47
-7374.01
-7388.28
-7389.43
-7379.8
-7361.91
-7338.43
-7312.24
-7286.37
-7264.05
-7248.7
-7243.95
-7253.7
-7282.14
-7333.78
-7413.58
-7527.04
-7680.34
-7880.56
-8135.97
-8456.48
-8854.3
-9344.94
-9948.89
-10694.5
-11622.9
-12798.8
-14331.2
-16426.7
-19528.1
-24736.3
28886.7
23670.1
20551.8
18430.8
16864.3
15645.5
14665.1
13858.4
13183.7
12612.4
12123.7
11701.7
11333.8
11009.7
10720.8
10459.6
10219.7
9995.43
9781.71
9573.99
9368.17
9160.58
8947.91
8727.23
8495.94
8251.76
7992.74
7717.25
7423.98
7111.93
6780.39
6428.98
6057.59
5666.42
5255.95
4826.92
4380.33
3917.43
3439.68
2948.76
2446.53
1935.01
1416.37
892.878
366.908
-159.114
-682.727
-1201.46
-1712.86
-2214.52
-2704.11
-3179.39
-3638.26
-4078.72
-4498.98
-4897.41
-5272.57
-5623.24
-5948.44
-6247.4
-6519.6
-6764.78
-6982.9
-7174.21
-7339.16
-7478.5
-7593.17
-7684.39
-7753.59
-7802.4
-7832.7
-7846.55
-7846.2
-7834.12
-7812.94
-7785.46
-7754.67
-7723.75
-7696.04
-7675.09
-7664.67
-7668.8
-7691.75
-7738.17
-7813.1
-7922.13
-8071.49
-8268.33
-8520.94
-8839.25
-9235.44
-9724.99
-10328.3
-11073.7
-12002.3
-13178.5
-14711.4
-16807.3
-19909.1
-25117.4
29467.3
24250.3
21131.1
19008.9
17440.7
16220
15237.5
14428.4
13751.2
13177.4
12686
12261.3
11890.5
11563.3
11271.1
11006.3
10762.5
10533.9
10315.2
10101.9
9889.75
9674.98
9454.2
9224.37
8982.82
8727.2
8455.49
8166.02
7857.42
7528.67
7179.06
6808.19
6415.98
6002.66
5568.74
5115.03
4642.6
4152.77
3647.12
3127.43
2595.67
2053.99
1504.7
950.217
393.046
-164.23
-718.997
-1268.63
-1810.53
-2342.14
-2860.99
-3364.69
-3851
-4317.83
-4763.25
-5185.53
-5583.14
-5954.79
-6299.42
-6616.2
-6904.6
-7164.3
-7395.28
-7597.76
-7772.24
-7919.47
-8040.46
-8136.47
-8208.99
-8259.75
-8290.69
-8303.99
-8302
-8287.29
-8262.6
-8230.88
-8195.22
-8158.93
-8125.48
-8098.54
-8082.01
-8079.99
-8096.91
-8137.5
-8206.89
-8310.74
-8455.38
-8647.97
-8896.87
-9212
-9605.57
-10093
-10694.8
-11439
-12366.8
-13542.4
-15075
-17170.8
-20272.5
-25480.7
30030.8
24813.5
21693.8
19570.7
18001.5
16779.6
15795.7
14985.1
14306.4
13730.9
13237.7
12811
12438.2
12108.7
11814
11546.3
11299.2
11066.8
10843.8
10625.4
10407.4
10185.8
9957.33
9718.72
9467.24
9200.48
8916.37
8613.17
8289.48
7944.25
7576.76
7186.62
6773.77
6338.44
5881.22
5402.97
4904.81
4388.18
3854.73
3306.36
2745.15
2173.4
1593.53
1008.11
419.797
-168.683
-754.56
-1335.06
-1907.43
-2468.96
-3017.03
-3549.13
-4062.88
-4556.06
-5026.62
-5472.74
-5892.79
-6285.41
-6649.45
-6984.06
-7288.63
-7562.84
-7806.65
-8020.29
-8204.26
-8359.35
-8486.61
-8587.35
-8663.12
-8715.74
-8747.23
-8759.86
-8756.08
-8738.58
-8710.21
-8674.03
-8633.26
-8591.33
-8551.82
-8518.54
-8495.5
-8486.92
-8497.32
-8531.53
-8594.79
-8692.84
-8832.06
-9019.68
-9264.09
-9575.25
-9965.36
-10449.9
-11049.2
-11791.4
-12717.6
-13892
-15423.8
-17518.9
-20620.2
-25828.3
30578.3
25360.8
22240.8
20117.3
18547.5
17325
16340.4
15529
14849.4
14272.9
13778.7
13350.8
12976.6
12645.5
12348.9
12079
11829.2
11593.5
11366.6
11143.6
10920.2
10692.3
10456.5
10209.4
9948.37
9670.78
9374.55
9057.89
8719.37
8357.91
7972.77
7563.58
7130.28
6673.15
6192.82
5690.19
5166.49
4623.21
4062.12
3485.21
2894.71
2293.02
1682.7
1066.47
447.131
-172.441
-789.323
-1400.59
-2003.33
-2594.69
-3171.91
-3732.33
-4273.44
-4792.9
-5288.55
-5758.45
-6200.9
-6614.43
-6997.85
-7350.23
-7670.94
-7959.62
-8216.22
-8440.97
-8634.38
-8797.29
-8930.76
-9036.16
-9115.12
-9169.51
-9201.46
-9213.31
-9207.63
-9187.2
-9154.99
-9114.16
-9068.08
-9020.26
-8974.44
-8934.52
-8904.62
-8889.1
-8892.56
-8919.95
-8976.59
-9068.29
-9201.52
-9383.55
-9622.83
-9929.34
-10315.3
-10796.2
-11392.3
-12131.9
-13056
-14228.6
-15759
-17853.2
-20953.9
-26161.7
31110.4
25892.9
22772.8
20649.2
19079.3
17856.6
16871.7
16060.1
15380.2
14803.4
14308.7
13880.3
13505.3
13173.2
12875.3
12603.7
12351.7
12113.3
11882.9
11655.8
11427.3
11193.5
10950.7
10695.6
10425.3
10137.2
9829.13
9499.3
9146.22
8768.8
8366.27
7938.28
7484.78
7006.09
6502.87
5976.1
5427.07
4857.37
4268.85
3663.63
3044.03
2412.6
1772.04
1125.19
475.007
-175.475
-823.188
-1465.05
-2098
-2719.04
-3325.26
-3913.87
-4482.22
-5027.83
-5548.46
-6042.04
-6506.77
-6941.12
-7343.83
-7713.9
-8050.67
-8353.75
-8623.08
-8858.87
-9061.68
-9232.32
-9371.95
-9481.95
-9564.03
-9620.13
-9652.45
-9663.43
-9655.74
-9632.26
-9596.08
-9550.46
-9498.88
-9444.99
-9392.62
-9345.81
-9308.79
-9286.01
-9282.19
-9302.38
-9351.98
-9436.89
-9563.63
-9739.57
-9973.18
-10274.5
-10655.7
-11132.4
-11724.9
-12461.3
-13382.7
-14553.2
-16081.9
-18174.8
-21274.7
-26482
31627.6
26410.2
23290.1
21166.6
19596.9
18374.4
17389.8
16578.4
15898.7
15322
14827.5
14399
14023.7
13691.2
13392.4
13119.6
12865.9
12625.2
12391.9
12160.9
11927.9
11688.5
11439.1
11176.2
10897
10598.7
10279.1
9936.43
9569.09
9175.99
8756.38
8309.87
7836.45
7336.49
6810.67
6260.05
5685.98
5090.13
4474.47
3841.2
3192.79
2531.89
1861.34
1184.14
503.379
-177.762
-856.058
-1528.28
-2191.21
-2841.71
-3476.71
-4093.3
-4688.68
-5260.28
-5805.69
-6322.79
-6809.66
-7264.7
-7686.55
-8074.2
-8426.92
-8744.3
-9026.26
-9273.01
-9485.12
-9663.45
-9809.15
-9923.69
-10008.8
-10066.5
-10099.2
-10109.2
-10099.4
-10072.8
-10032.5
-9982.01
-9924.8
-9864.68
-9805.6
-9751.7
-9707.32
-9677.03
-9665.66
-9678.34
-9720.56
-9798.31
-9918.19
-10087.6
-10315.1
-10610.8
-10986.9
-11458.9
-12047.3
-12780.1
-13698.4
-14866.4
-16393.1
-18484.5
-21583.4
-26790.3
32130
26912.6
23792.8
21669.7
20100.3
18878.4
17894.3
17083.6
16404.5
15828.4
15334.4
14906.3
14531.3
14198.7
13899.6
13626
13370.9
13128.3
12892.4
12658.1
12420.7
12176.1
11920.4
11650.2
11362.3
11054.2
10723.5
10368.2
9986.95
9578.51
9142.12
8677.43
8184.44
7663.53
7115.46
6541.32
5942.55
5320.91
4678.44
4017.48
3340.6
2650.58
1950.4
1243.19
532.188
-179.277
-887.831
-1590.09
-2282.69
-2962.34
-3625.85
-4270.13
-4892.29
-5489.61
-6059.59
-6599.97
-7108.78
-7584.3
-8025.13
-8430.2
-8798.72
-9130.26
-9424.72
-9682.33
-9903.65
-10089.6
-10241.3
-10360.3
-10448.4
-10507.7
-10540.5
-10549.6
-10537.6
-10507.8
-10463.4
-10407.8
-10344.9
-10278.4
-10212.5
-10151.4
-10099.5
-10061.5
-10042.4
-10047.3
-10081.9
-10152.2
-10264.9
-10427.5
-10648.6
-10938.2
-11308.8
-11775.9
-12359.8
-13088.7
-14003.6
-15168.8
-16693.3
-18783
-21880.8
-27087.1
32617.4
27400.3
24280.7
22158.1
20589.4
19368.2
18385
17575.2
16897.1
16322
15828.9
15401.6
15027.2
14694.9
14395.7
14121.7
13865.7
13621.5
13383.3
13146
12904.8
12655.3
12393.6
12116.3
11820.2
11502.6
11161
10793.6
10398.7
9975.28
9522.49
9039.99
8527.8
7986.34
7416.41
6819.16
6196.1
5549.08
4880.23
4192.01
3487.08
2768.38
2038.99
1302.19
561.369
-180.003
-918.402
-1650.3
-2372.18
-3080.61
-3772.24
-4443.87
-5092.47
-5715.18
-6309.42
-6872.81
-7403.27
-7899.04
-8358.62
-8780.88
-9165.01
-9510.54
-9817.36
-10085.7
-10316.1
-10509.5
-10667.1
-10790.5
-10881.5
-10942.3
-10975.4
-10983.3
-10969.2
-10936.1
-10887.5
-10826.9
-10758.2
-10685.3
-10612.4
-10544
-10484.4
-10438.6
-10411.6
-10408.6
-10435.4
-10498
-10603.4
-10758.9
-10973.3
-11256.7
-11621.5
-12083.2
-12662.4
-13387.1
-14298.5
-15460.7
-16982.8
-19070.7
-22167.3
-27373
33089.6
27872.7
24753.6
22631.6
21063.7
19843.5
18861.4
18052.7
17375.9
16802.1
16310.1
15883.9
15510.4
15178.8
14880
14605.8
14349.2
14103.8
13863.7
13623.6
13378.8
13124.7
12857.5
12573.4
12269.4
11942.6
11590.5
11211.3
10803.2
10365.2
9896.42
9396.52
8865.57
8304
7712.66
7092.77
6445.9
5773.98
5079.26
4364.27
3631.81
2884.93
2126.85
1360.98
590.849
-179.924
-947.67
-1708.71
-2459.39
-3196.13
-3915.44
-4613.98
-5288.59
-5936.32
-6554.43
-7140.47
-7692.27
-8207.96
-8686.01
-9125.21
-9524.72
-9884.03
-10203
-10481.9
-10721.2
-10922
-11085.4
-11213.1
-11307
-11369.2
-11402.4
-11409.3
-11392.9
-11356.6
-11303.7
-11238.1
-11163.5
-11084.2
-11004.4
-10928.6
-10861.3
-10807.6
-10772.6
-10761.6
-10780.4
-10835.3
-10933.1
-11081.4
-11288.9
-11565.9
-11924.7
-12381
-12955.3
-13675.7
-14583.3
-15742.3
-17261.8
-19347.9
-22443.2
-27648.3
33546.1
28329.4
25210.9
23089.6
21522.6
20303.5
19322.7
18515.5
17840.1
17267.8
16777.3
16352.4
15980.1
15649.4
15351.1
15077.1
14820.2
14573.8
14332.1
14089.6
13841.5
13583.2
13310.6
13020.2
12708.6
12373
12010.8
11620.1
11199.3
10747.1
10262.8
9745.95
9196.71
8615.53
8003.31
7361.31
6691.18
5994.94
5274.91
4533.75
3774.35
2999.89
2213.72
1419.38
620.547
-179.029
-975.531
-1765.13
-2544.04
-3308.53
-4054.98
-4779.92
-5480.05
-6152.31
-6793.85
-7402.11
-7974.85
-8510.1
-9006.27
-9462.11
-9876.71
-10249.6
-10580.5
-10869.7
-11117.8
-11325.8
-11494.9
-11626.8
-11723.5
-11787.1
-11820.5
-11826.2
-11807.6
-11768
-11710.9
-11640.2
-11559.9
-11474.1
-11387.4
-11304.2
-11229.3
-11167.6
-11124.6
-11105.5
-11116.4
-11163.4
-11253.6
-11394.6
-11595.1
-11865.5
-12218.3
-12669
-13238.2
-13954.1
-14857.9
-16013.7
-17530.6
-19614.7
-22708.6
-27913.1
33986.3
28769.9
25651.9
23531.4
21965.5
20747.6
19768.2
18962.6
18288.8
17718.2
17229.4
16806.1
16435.1
16105.6
15808.1
15534.5
15277.5
15030.4
14787.3
14542.7
14291.5
14029.3
13751.8
13455.3
13136.5
12792.4
12420.5
12018.8
11585.7
11119.8
10620.4
10087.1
9520.16
8919.95
8287.42
7623.91
6931.16
6211.23
5466.56
4699.88
3914.23
3112.88
2299.32
1477.22
650.373
-177.312
-1001.88
-1819.37
-2625.85
-3417.44
-4190.4
-4941.12
-5666.2
-6362.42
-7026.86
-7656.86
-8250.06
-8804.45
-9318.35
-9790.45
-10219.8
-10605.9
-10948.5
-11247.9
-11504.6
-11719.6
-11894.3
-12030.3
-12129.7
-12194.7
-12228.1
-12232.8
-12212
-12169.1
-12107.8
-12032.1
-11946
-11853.9
-11760.3
-11669.7
-11587.2
-11517.7
-11466.7
-11439.6
-11442.5
-11481.7
-11564.2
-11697.8
-11891.4
-12155.2
-12501.8
-12946.9
-13511
-14222.4
-15122.3
-16274.8
-17789
-19871.1
-22963.7
-28167.4
34409.4
29193.3
26075.9
23956.3
22391.5
21174.9
20197.1
19393.1
18721.2
18152.3
17665.3
17243.8
16874.4
16546.2
16249.7
15976.7
15719.8
15472.2
15228
14981.5
14727.6
14461.7
14179.6
13877.3
13551.7
13199.5
12818.4
12406.1
11961.1
11482
10968.1
10419
9834.84
9216.2
8564.02
7879.7
7165.01
6422.11
5653.54
4862.12
4050.99
3223.53
2383.37
1534.29
680.232
-174.77
-1026.63
-1871.23
-2704.51
-3522.47
-4321.22
-5097.03
-5846.37
-6565.93
-7252.66
-7903.82
-8516.95
-9089.97
-9621.14
-10109.1
-10552.9
-10951.8
-11305.8
-11615.1
-11880.2
-12102.1
-12282.2
-12422.2
-12524.2
-12590.6
-12624
-12627.6
-12604.6
-12558.5
-12493.1
-12412.5
-12320.8
-12222.4
-12122
-12024.2
-11934.2
-11856.9
-11798
-11762.9
-11757.9
-11789.4
-11864.3
-11990.6
-12177.2
-12434.5
-12774.9
-13214.4
-13773.4
-14480.3
-15376.2
-16525.3
-18036.9
-20116.9
-23208.2
-28411.3
34814.7
29598.9
26482
24363.3
22799.7
21584.6
20608.3
19806.1
19136.1
18569.1
18084.1
17664.3
17296.7
16969.9
16674.6
16402.4
16145.8
15897.9
15652.8
15404.6
15148.3
14879
14592.5
14284.9
13952.8
13593
13203
12780.6
12324.2
11832.4
11304.6
10740.3
10139.6
9503.26
8832.15
8127.74
7391.9
6626.85
5835.19
5019.87
4184.12
3331.44
2465.56
1590.4
710.021
-171.408
-1049.66
-1920.51
-2779.74
-3623.22
-4446.95
-5247.06
-6019.91
-6762.08
-7470.43
-8142.09
-8774.55
-9365.64
-9913.56
-10416.9
-10874.6
-11286.1
-11651.2
-11970
-12243.2
-12471.8
-12657.2
-12801.1
-12905.6
-12973.3
-13006.8
-13009.3
-12984.2
-12935
-12865.6
-12780.2
-12683
-12578.4
-12471.4
-12366.5
-12269.1
-12184.2
-12117.5
-12074.7
-12061.9
-12085.7
-12153.2
-12272.3
-12452
-12702.8
-13037.2
-13471
-14025
-14727.3
-15619.3
-16765.2
-18274.1
-20352.1
-23442
-28644.4
35201.1
29985.6
26869.4
24751.6
23189.2
21975.5
21000.9
20200.5
19532.4
18967.5
18484.5
18066.7
17700.8
17375.6
17081.6
16810.3
16554.1
16306.2
16060.3
15810.7
15552.1
15279.8
14989.3
14676.6
14338.4
13971.3
13572.9
13141
12673.7
12169.9
11628.7
11049.9
10433.4
9780.06
9090.8
8367.14
7610.99
6824.66
6010.84
5172.56
4313.14
3436.21
2545.59
1645.34
739.632
-167.234
-1070.91
-1967.02
-2851.25
-3719.32
-4567.12
-5390.65
-6186.17
-6950.14
-7679.32
-8370.77
-9021.88
-9630.4
-10194.5
-10712.7
-11183.9
-11607.5
-11983.2
-12311.3
-12592.4
-12827.5
-13018
-13165.6
-13272.6
-13341.5
-13375.1
-13376.6
-13349.4
-13297.2
-13223.9
-13133.8
-13031.2
-12920.8
-12807.2
-12695.6
-12590.9
-12498.7
-12424.4
-12374
-12353.6
-12369.9
-12430.1
-12542.2
-12715.2
-12959.5
-13288
-13716.4
-14265.3
-14963.2
-15851.4
-16994
-18500.3
-20576.3
-23664.9
-28866.6
35567.8
30352.6
27237.1
25120.2
23559
22346.8
21373.9
20575.3
19909.2
19346.3
18865.3
18449.5
18085.5
17762
17469.3
17199
16943.4
16695.6
16449.2
16198.3
15937.8
15662.6
15368.4
15051
14707
14333.2
13926.9
13485.9
13008.4
12493.1
11939.3
11346.6
10715.1
10045.5
9338.99
8596.96
7821.44
7014.8
6179.81
5319.59
4437.55
3537.43
2623.16
1698.9
768.954
-162.261
-1090.27
-2010.59
-2918.75
-3810.39
-4681.25
-5527.24
-6344.49
-7129.37
-7878.53
-8588.96
-9257.97
-9883.23
-10462.8
-10995.3
-11479.4
-11914.7
-12300.7
-12637.7
-12926.4
-13167.7
-13363
-13514.3
-13623.8
-13693.9
-13727.5
-13728
-13698.8
-13643.7
-13566.7
-13472.1
-13364.4
-13248.2
-13128.5
-13010.2
-12898.6
-12799.2
-12717.6
-12659.8
-12632.1
-12641.2
-12694.3
-12799.6
-12966
-13204.2
-13526.8
-13949.9
-14494
-15187.6
-16072
-17211.4
-18715.1
-20789.2
-23876.5
-29077.6
35913.8
30699
27584
25468.1
23908.1
22697.3
21726.1
20929.4
20265.2
19704.4
19225.4
18811.6
18449.5
18127.7
17836.5
17567.3
17312.4
17064.8
16817.9
16566.1
16303.8
16026.1
15728.4
15406.8
15057.4
14677.3
14263.6
13814
13326.9
12800.8
12235
11629.2
10983.5
10298.7
9575.73
8816.3
8022.41
7196.5
6341.43
5460.37
4556.86
3634.69
2697.94
1750.86
797.869
-156.508
-1107.67
-2051.02
-2981.98
-3896.06
-4788.88
-5656.26
-6494.22
-7299.03
-8067.26
-8795.79
-9481.86
-10123.1
-10717.5
-11263.6
-11760.1
-12206.5
-12602.3
-12947.9
-13243.8
-13491
-13691.1
-13845.9
-13957.6
-14028.9
-14062.7
-14062.2
-14031.2
-13973.3
-13892.8
-13793.9
-13681.2
-13559.6
-13433.9
-13309.2
-13191
-13084.8
-12996.2
-12931.4
-12896.6
-12898.7
-12945.1
-13043.7
-13203.8
-13436
-13753.1
-14171
-14710.4
-15399.9
-16280.6
-17417
-18918.2
-20990.5
-24076.5
-29277
36238.1
31023.6
27909.2
25794.2
24235.4
23026.1
22056.5
21261.6
20599.4
20040.6
19563.7
19151.9
18791.7
18471.6
18181.9
17913.9
17659.7
17412.4
17165.3
16912.6
16648.8
16368.8
16068
15742.4
15388.2
15002.1
14581.5
14124
13627.9
13091.7
12514.7
11896.7
11237.7
10538.4
9800.06
9024.25
8213.07
7369.03
6495.02
5594.33
4670.55
3727.61
2769.64
1801.02
826.256
-149.999
-1123.05
-2088.17
-3040.67
-3975.97
-4889.57
-5777.2
-6634.76
-7458.43
-8244.71
-8990.39
-9692.64
-10349
-10957.5
-11516.5
-12024.8
-12481.6
-12886.8
-13240.5
-13543.3
-13796.2
-14000.8
-14158.9
-14272.9
-14345.3
-14379.2
-14377.9
-14345.1
-14284.6
-14200.7
-14097.8
-13980.5
-13853.7
-13722.3
-13591.7
-13467.2
-13354.4
-13259.2
-13187.6
-13146.1
-13141.6
-13181.5
-13273.9
-13428
-13654.5
-13966.2
-14379.2
-14914.2
-15599.6
-16476.9
-17610.3
-19109.2
-21179.6
-24264.5
-29464.3
36539.7
31325.4
28211.7
26097.6
24540
23332
22364.1
21571
20910.6
20353.8
19878.9
19469.1
19110.7
18792.4
18504.2
18237.4
17984.1
17737.1
17490
17236.6
16971.4
16689.4
16385.9
16056.6
15697.9
15306.5
14879.5
14414.7
13910.2
13364.7
12777.3
12147.8
11476.4
10763.7
10011
9219.95
8392.63
7531.64
6639.94
5720.89
4778.17
3815.77
2837.94
1849.14
853.994
-142.763
-1136.32
-2121.85
-3094.58
-4049.78
-4982.89
-5889.52
-6765.49
-7606.89
-8410.13
-9171.94
-9889.41
-10560
-11181.8
-11752.9
-12272.2
-12739.1
-13153.1
-13514.4
-13823.7
-14082
-14290.9
-14452.2
-14568.2
-14641.8
-14675.8
-14673.8
-14639.3
-14576.4
-14489.4
-14382.7
-14261.1
-14129.3
-13992.7
-13856.4
-13726
-13607
-13505.5
-13427.7
-13379.9
-13369.1
-13402.9
-13489.3