/*--------------------------------*- C++ -*----------------------------------*\
  =========                 |
  \\      /  F ield         | OpenFOAM: The Open Source CFD Toolbox
   \\    /   O peration     | Website:  https://openfoam.org
    \\  /    A nd           | Version:  9
     \\/     M anipulation  |
\*---------------------------------------------------------------------------*/
FoamFile
{
    format      ascii;
    class       volScalarField;
    location    "0.35";
    object      T;
}
// * * * * * * * * * * * * * * * * * * * * * * * * * * * * * * * * * * * * * //

dimensions      [0 0 0 1 0 0 0];

internalField   nonuniform List<scalar> 
200000
(
300.359
300.662
300.834
300.952
301.043
301.117
301.18
301.235
301.285
301.331
301.373
301.412
301.449
301.484
301.518
301.55
301.581
301.611
301.64
301.668
301.695
301.722
301.748
301.773
301.797
301.821
301.844
301.866
301.887
301.907
301.927
301.945
301.962
301.978
301.994
302.007
302.02
302.031
302.042
302.05
302.058
302.064
302.068
302.071
302.073
302.073
302.072
302.069
302.065
302.059
302.053
302.044
302.035
302.024
302.012
301.999
301.985
301.97
301.954
301.937
301.919
301.901
301.882
301.862
301.842
301.822
301.801
301.78
301.758
301.737
301.715
301.693
301.671
301.649
301.627
301.605
301.583
301.561
301.539
301.517
301.494
301.472
301.449
301.426
301.402
301.377
301.352
301.325
301.297
301.267
301.234
301.198
301.158
301.112
301.059
300.995
300.915
300.807
300.646
300.353
300.662
301.392
301.863
302.203
302.469
302.689
302.877
303.042
303.191
303.327
303.453
303.57
303.681
303.786
303.887
303.984
304.077
304.166
304.254
304.338
304.42
304.5
304.578
304.653
304.726
304.797
304.865
304.931
304.995
305.056
305.114
305.169
305.221
305.269
305.314
305.356
305.394
305.428
305.459
305.485
305.507
305.525
305.538
305.547
305.552
305.553
305.549
305.541
305.529
305.512
305.491
305.467
305.438
305.406
305.37
305.331
305.289
305.244
305.196
305.145
305.092
305.037
304.98
304.921
304.861
304.799
304.736
304.673
304.609
304.544
304.478
304.413
304.347
304.281
304.215
304.149
304.083
304.017
303.951
303.884
303.817
303.749
303.681
303.611
303.539
303.466
303.389
303.309
303.225
303.134
303.036
302.929
302.81
302.674
302.516
302.327
302.092
301.784
301.345
300.646
300.834
301.863
302.575
303.11
303.539
303.896
304.205
304.478
304.724
304.949
305.158
305.353
305.537
305.712
305.88
306.04
306.195
306.345
306.49
306.631
306.768
306.901
307.03
307.156
307.278
307.396
307.51
307.62
307.726
307.827
307.924
308.015
308.102
308.183
308.259
308.328
308.392
308.449
308.499
308.543
308.58
308.609
308.632
308.647
308.656
308.656
308.65
308.637
308.616
308.588
308.554
308.513
308.465
308.412
308.352
308.287
308.216
308.141
308.061
307.976
307.888
307.796
307.701
307.603
307.502
307.399
307.295
307.189
307.082
306.973
306.865
306.755
306.645
306.536
306.425
306.315
306.205
306.095
305.984
305.874
305.762
305.649
305.535
305.419
305.3
305.177
305.05
304.917
304.777
304.627
304.465
304.287
304.09
303.867
303.609
303.303
302.926
302.443
301.784
300.807
300.952
302.203
303.11
303.815
304.39
304.877
305.3
305.677
306.017
306.33
306.62
306.892
307.149
307.393
307.627
307.851
308.067
308.277
308.48
308.677
308.868
309.055
309.236
309.411
309.582
309.748
309.908
310.062
310.21
310.352
310.487
310.616
310.737
310.851
310.957
311.054
311.143
311.223
311.294
311.355
311.407
311.448
311.48
311.502
311.513
311.514
311.506
311.487
311.458
311.419
311.371
311.313
311.247
311.172
311.088
310.997
310.898
310.792
310.68
310.561
310.438
310.309
310.175
310.038
309.897
309.753
309.607
309.458
309.308
309.156
309.004
308.85
308.697
308.543
308.388
308.234
308.08
307.926
307.771
307.616
307.459
307.302
307.142
306.98
306.813
306.642
306.465
306.28
306.084
305.876
305.651
305.405
305.133
304.827
304.474
304.06
303.557
302.926
302.092
300.915
301.043
302.469
303.539
304.39
305.097
305.703
306.234
306.709
307.141
307.539
307.909
308.256
308.584
308.897
309.197
309.485
309.762
310.031
310.292
310.545
310.791
311.031
311.263
311.49
311.709
311.922
312.128
312.326
312.517
312.7
312.874
313.04
313.196
313.342
313.478
313.604
313.718
313.821
313.912
313.991
314.057
314.111
314.152
314.18
314.195
314.196
314.185
314.161
314.124
314.074
314.012
313.938
313.852
313.755
313.648
313.53
313.403
313.267
313.122
312.97
312.81
312.644
312.472
312.296
312.114
311.929
311.74
311.549
311.356
311.161
310.964
310.767
310.569
310.371
310.173
309.974
309.776
309.577
309.379
309.179
308.978
308.776
308.571
308.362
308.149
307.93
307.703
307.466
307.217
306.951
306.665
306.354
306.01
305.625
305.185
304.672
304.058
303.301
302.326
300.995
301.117
302.689
303.896
304.877
305.703
306.418
307.051
307.62
308.139
308.619
309.067
309.488
309.887
310.268
310.632
310.983
311.322
311.65
311.968
312.277
312.578
312.87
313.155
313.432
313.7
313.96
314.212
314.455
314.688
314.912
315.125
315.328
315.519
315.698
315.865
316.018
316.158
316.284
316.396
316.493
316.574
316.64
316.69
316.724
316.742
316.744
316.731
316.701
316.655
316.594
316.518
316.428
316.323
316.205
316.073
315.929
315.773
315.607
315.429
315.243
315.048
314.845
314.634
314.418
314.196
313.969
313.738
313.504
313.267
313.029
312.788
312.547
312.305
312.062
311.82
311.577
311.335
311.092
310.849
310.605
310.36
310.113
309.863
309.609
309.349
309.082
308.806
308.519
308.216
307.895
307.55
307.176
306.764
306.305
305.784
305.182
304.471
303.606
302.514
301.058
301.18
302.877
304.205
305.3
306.234
307.051
307.778
308.437
309.04
309.6
310.123
310.616
311.085
311.532
311.961
312.374
312.773
313.16
313.536
313.901
314.256
314.602
314.938
315.265
315.583
315.891
316.188
316.476
316.752
317.017
317.269
317.509
317.735
317.947
318.145
318.326
318.492
318.642
318.774
318.888
318.985
319.063
319.122
319.163
319.184
319.187
319.17
319.135
319.081
319.009
318.919
318.812
318.688
318.548
318.392
318.222
318.037
317.84
317.63
317.409
317.178
316.938
316.689
316.432
316.17
315.901
315.628
315.351
315.071
314.788
314.503
314.218
313.931
313.645
313.358
313.071
312.784
312.497
312.21
311.922
311.632
311.341
311.046
310.746
310.441
310.127
309.803
309.466
309.111
308.736
308.335
307.9
307.424
306.896
306.301
305.618
304.82
303.861
302.67
301.111
301.235
303.042
304.478
305.677
306.709
307.62
308.437
309.18
309.864
310.5
311.097
311.661
312.197
312.71
313.203
313.678
314.137
314.583
315.015
315.436
315.846
316.245
316.633
317.01
317.377
317.733
318.077
318.408
318.728
319.034
319.326
319.603
319.864
320.109
320.338
320.548
320.74
320.912
321.065
321.198
321.309
321.399
321.468
321.515
321.54
321.543
321.524
321.484
321.422
321.338
321.235
321.111
320.967
320.805
320.625
320.428
320.215
319.986
319.744
319.489
319.221
318.943
318.656
318.359
318.055
317.745
317.429
317.109
316.785
316.458
316.129
315.799
315.468
315.137
314.806
314.474
314.143
313.812
313.48
313.148
312.815
312.479
312.139
311.795
311.444
311.084
310.712
310.326
309.922
309.495
309.038
308.547
308.01
307.417
306.753
305.998
305.122
304.081
302.804
301.156
301.285
303.191
304.724
306.017
307.141
308.139
309.04
309.864
310.625
311.336
312.004
312.637
313.24
313.818
314.373
314.909
315.428
315.932
316.421
316.898
317.362
317.814
318.254
318.682
319.098
319.501
319.891
320.268
320.631
320.978
321.309
321.624
321.921
322.2
322.459
322.698
322.916
323.112
323.285
323.436
323.563
323.666
323.744
323.797
323.826
323.829
323.808
323.762
323.691
323.597
323.479
323.338
323.175
322.991
322.787
322.563
322.321
322.062
321.786
321.496
321.193
320.877
320.55
320.213
319.868
319.516
319.157
318.793
318.425
318.054
317.681
317.306
316.931
316.554
316.178
315.803
315.427
315.052
314.676
314.3
313.922
313.542
313.158
312.769
312.373
311.968
311.55
311.116
310.663
310.185
309.677
309.13
308.536
307.883
307.156
306.334
305.387
304.273
302.92
301.195
301.331
303.327
304.949
306.33
307.539
308.619
309.6
310.5
311.336
312.118
312.856
313.556
314.225
314.866
315.483
316.08
316.658
317.219
317.766
318.298
318.816
319.321
319.813
320.291
320.756
321.208
321.645
322.066
322.472
322.861
323.232
323.584
323.917
324.229
324.52
324.787
325.032
325.252
325.446
325.615
325.757
325.872
325.96
326.02
326.052
326.056
326.033
325.981
325.902
325.796
325.664
325.507
325.325
325.118
324.889
324.639
324.367
324.077
323.768
323.443
323.103
322.749
322.383
322.006
321.619
321.224
320.823
320.415
320.003
319.588
319.17
318.75
318.329
317.909
317.488
317.067
316.647
316.227
315.808
315.387
314.966
314.542
314.114
313.681
313.24
312.79
312.327
311.847
311.346
310.819
310.26
309.662
309.014
308.304
307.518
306.635
305.624
304.444
303.024
301.23
301.373
303.453
305.158
306.62
307.909
309.067
310.123
311.097
312.004
312.856
313.661
314.427
315.16
315.863
316.542
317.198
317.835
318.454
319.057
319.644
320.217
320.775
321.318
321.848
322.362
322.862
323.345
323.812
324.261
324.692
325.103
325.493
325.862
326.208
326.53
326.826
327.097
327.341
327.557
327.744
327.902
328.029
328.127
328.193
328.229
328.234
328.208
328.151
328.063
327.946
327.8
327.626
327.424
327.195
326.941
326.664
326.363
326.041
325.7
325.34
324.963
324.571
324.165
323.747
323.318
322.881
322.436
321.984
321.528
321.068
320.605
320.14
319.674
319.208
318.743
318.277
317.813
317.349
316.885
316.421
315.955
315.488
315.016
314.539
314.055
313.56
313.052
312.527
311.98
311.406
310.799
310.151
309.451
308.689
307.848
306.908
305.839
304.599
303.117
301.261
301.412
303.57
305.353
306.892
308.256
309.488
310.616
311.661
312.637
313.556
314.427
315.257
316.053
316.818
317.557
318.273
318.968
319.644
320.303
320.945
321.572
322.183
322.778
323.358
323.922
324.47
325
325.512
326.005
326.478
326.929
327.358
327.762
328.142
328.495
328.821
329.119
329.387
329.624
329.83
330.003
330.143
330.251
330.324
330.363
330.369
330.34
330.278
330.182
330.054
329.893
329.702
329.48
329.229
328.951
328.646
328.316
327.962
327.587
327.192
326.778
326.347
325.902
325.443
324.972
324.492
324.003
323.508
323.007
322.501
321.993
321.483
320.972
320.461
319.95
319.44
318.931
318.423
317.915
317.407
316.898
316.387
315.872
315.352
314.824
314.286
313.734
313.164
312.573
311.953
311.3
310.604
309.855
309.043
308.151
307.158
306.035
304.74
303.202
301.289
301.449
303.681
305.537
307.149
308.584
309.887
311.085
312.197
313.24
314.225
315.16
316.053
316.91
317.736
318.535
319.309
320.062
320.795
321.509
322.206
322.887
323.551
324.198
324.829
325.443
326.038
326.616
327.173
327.71
328.225
328.716
329.183
329.624
330.038
330.423
330.779
331.103
331.395
331.654
331.878
332.067
332.221
332.338
332.418
332.461
332.467
332.436
332.368
332.264
332.125
331.95
331.741
331.5
331.226
330.923
330.591
330.231
329.846
329.437
329.006
328.555
328.086
327.6
327.1
326.588
326.064
325.531
324.991
324.445
323.895
323.342
322.786
322.23
321.673
321.117
320.562
320.009
319.456
318.904
318.352
317.799
317.245
316.687
316.125
315.554
314.973
314.378
313.765
313.13
312.466
311.768
311.026
310.231
309.372
308.431
307.389
306.216
304.87
303.28
301.315
301.484
303.786
305.712
307.393
308.897
310.268
311.532
312.71
313.818
314.866
315.863
316.818
317.736
318.622
319.479
320.312
321.122
321.911
322.681
323.433
324.167
324.884
325.583
326.264
326.928
327.572
328.196
328.799
329.38
329.937
330.469
330.975
331.452
331.9
332.318
332.703
333.054
333.37
333.651
333.894
334.099
334.265
334.392
334.479
334.526
334.533
334.5
334.427
334.314
334.163
333.974
333.748
333.487
333.191
332.863
332.503
332.114
331.697
331.254
330.787
330.299
329.791
329.265
328.723
328.168
327.601
327.025
326.44
325.849
325.253
324.654
324.053
323.452
322.85
322.248
321.648
321.05
320.453
319.857
319.261
318.665
318.068
317.468
316.862
316.25
315.626
314.989
314.334
313.656
312.95
312.208
311.423
310.584
309.679
308.692
307.604
306.384
304.99
303.352
301.339
301.518
303.887
305.88
307.627
309.197
310.632
311.961
313.203
314.373
315.483
316.542
317.557
318.535
319.479
320.395
321.285
322.151
322.997
323.822
324.628
325.416
326.185
326.936
327.669
328.382
329.074
329.745
330.394
331.019
331.619
332.191
332.736
333.25
333.732
334.182
334.597
334.975
335.316
335.618
335.88
336.101
336.281
336.418
336.512
336.563
336.571
336.535
336.456
336.336
336.173
335.97
335.727
335.445
335.127
334.773
334.386
333.967
333.518
333.041
332.539
332.013
331.466
330.899
330.316
329.719
329.108
328.487
327.858
327.222
326.58
325.936
325.289
324.641
323.994
323.347
322.702
322.059
321.418
320.778
320.139
319.5
318.86
318.217
317.57
316.915
316.25
315.572
314.875
314.156
313.408
312.624
311.797
310.915
309.968
308.938
307.805
306.541
305.103
303.42
301.362
301.55
303.984
306.04
307.851
309.485
310.983
312.374
313.678
314.909
316.08
317.198
318.273
319.309
320.312
321.285
322.232
323.154
324.055
324.935
325.795
326.637
327.459
328.261
329.044
329.807
330.548
331.266
331.961
332.63
333.272
333.885
334.468
335.019
335.537
336.018
336.463
336.869
337.234
337.559
337.84
338.077
338.27
338.417
338.518
338.573
338.581
338.544
338.46
338.331
338.157
337.939
337.679
337.377
337.036
336.658
336.243
335.793
335.312
334.802
334.263
333.7
333.113
332.507
331.882
331.241
330.587
329.922
329.247
328.566
327.879
327.189
326.496
325.803
325.11
324.418
323.728
323.04
322.354
321.67
320.988
320.306
319.624
318.939
318.25
317.554
316.848
316.129
315.392
314.632
313.844
313.02
312.152
311.229
310.241
309.169
307.995
306.689
305.209
303.484
301.383
301.581
304.077
306.195
308.067
309.762
311.322
312.773
314.137
315.428
316.658
317.835
318.968
320.062
321.122
322.151
323.154
324.133
325.089
326.023
326.937
327.832
328.706
329.56
330.394
331.206
331.995
332.761
333.501
334.214
334.899
335.553
336.175
336.763
337.315
337.829
338.304
338.737
339.128
339.474
339.774
340.028
340.234
340.391
340.499
340.558
340.568
340.528
340.439
340.301
340.116
339.884
339.606
339.285
338.921
338.517
338.074
337.595
337.082
336.537
335.963
335.361
334.736
334.088
333.422
332.738
332.041
331.331
330.611
329.884
329.152
328.416
327.677
326.938
326.199
325.462
324.727
323.994
323.264
322.537
321.812
321.087
320.363
319.637
318.906
318.17
317.424
316.664
315.888
315.088
314.26
313.397
312.49
311.528
310.5
309.389
308.175
306.829
305.309
303.544
301.403
301.611
304.166
306.345
308.277
310.031
311.65
313.16
314.583
315.932
317.219
318.454
319.644
320.795
321.911
322.997
324.055
325.089
326.099
327.088
328.055
329.002
329.929
330.835
331.719
332.58
333.418
334.23
335.016
335.774
336.501
337.196
337.857
338.482
339.069
339.615
340.12
340.581
340.996
341.364
341.684
341.954
342.173
342.341
342.456
342.519
342.53
342.488
342.393
342.247
342.051
341.804
341.51
341.169
340.782
340.353
339.882
339.373
338.828
338.249
337.638
336.999
336.334
335.646
334.938
334.211
333.47
332.716
331.951
331.179
330.401
329.618
328.834
328.049
327.265
326.482
325.702
324.925
324.151
323.38
322.612
321.845
321.079
320.312
319.541
318.764
317.978
317.18
316.364
315.526
314.66
313.758
312.813
311.813
310.747
309.598
308.346
306.963
305.404
303.601
301.422
301.64
304.254
306.49
308.48
310.292
311.968
313.536
315.015
316.421
317.766
319.057
320.303
321.509
322.681
323.822
324.935
326.023
327.088
328.13
329.151
330.15
331.129
332.085
333.019
333.93
334.816
335.676
336.507
337.309
338.079
338.815
339.514
340.176
340.798
341.377
341.911
342.4
342.84
343.23
343.569
343.856
344.088
344.267
344.389
344.457
344.468
344.424
344.324
344.17
343.962
343.702
343.39
343.029
342.62
342.165
341.667
341.128
340.55
339.937
339.291
338.614
337.91
337.181
336.431
335.661
334.876
334.077
333.268
332.45
331.626
330.798
329.968
329.137
328.308
327.48
326.655
325.834
325.016
324.202
323.391
322.582
321.775
320.966
320.155
319.339
318.514
317.677
316.823
315.947
315.043
314.105
313.122
312.086
310.983
309.798
308.51
307.09
305.495
303.656
301.441
301.668
304.338
306.631
308.677
310.545
312.277
313.901
315.436
316.898
318.298
319.644
320.945
322.206
323.433
324.628
325.795
326.937
328.055
329.151
330.224
331.276
332.306
333.313
334.297
335.257
336.19
337.097
337.974
338.819
339.632
340.408
341.147
341.846
342.502
343.113
343.678
344.194
344.659
345.071
345.43
345.733
345.979
346.167
346.298
346.369
346.382
346.335
346.231
346.068
345.849
345.575
345.246
344.865
344.433
343.953
343.428
342.859
342.249
341.602
340.919
340.205
339.462
338.692
337.9
337.088
336.26
335.417
334.562
333.699
332.83
331.956
331.08
330.204
329.329
328.456
327.587
326.721
325.86
325.003
324.15
323.299
322.451
321.602
320.751
319.896
319.032
318.157
317.266
316.353
315.413
314.438
313.42
312.348
311.21
309.99
308.667
307.212
305.582
303.708
301.458
301.695
304.42
306.768
308.868
310.791
312.578
314.256
315.846
317.362
318.816
320.217
321.572
322.887
324.167
325.416
326.637
327.832
329.002
330.15
331.276
332.379
333.46
334.517
335.551
336.559
337.541
338.494
339.416
340.305
341.16
341.977
342.754
343.489
344.18
344.824
345.419
345.962
346.452
346.887
347.264
347.584
347.843
348.042
348.18
348.256
348.269
348.221
348.111
347.941
347.711
347.422
347.076
346.676
346.222
345.717
345.164
344.565
343.924
343.242
342.524
341.772
340.99
340.181
339.347
338.492
337.62
336.733
335.834
334.926
334.011
333.092
332.171
331.249
330.329
329.412
328.498
327.589
326.684
325.785
324.889
323.998
323.109
322.22
321.33
320.436
319.535
318.622
317.694
316.746
315.77
314.76
313.707
312.601
311.428
310.174
308.817
307.328
305.665
303.758
301.475
301.722
304.5
306.901
309.055
311.031
312.87
314.602
316.245
317.814
319.321
320.775
322.183
323.551
324.884
326.185
327.459
328.706
329.929
331.129
332.306
333.46
334.591
335.698
336.781
337.838
338.866
339.865
340.832
341.765
342.661
343.519
344.335
345.106
345.831
346.508
347.132
347.703
348.217
348.674
349.071
349.407
349.68
349.889
350.034
350.115
350.129
350.079
349.965
349.786
349.545
349.243
348.88
348.46
347.984
347.454
346.874
346.246
345.573
344.858
344.104
343.315
342.494
341.644
340.769
339.872
338.957
338.026
337.082
336.129
335.17
334.205
333.239
332.273
331.308
330.346
329.389
328.436
327.489
326.547
325.61
324.678
323.749
322.821
321.892
320.96
320.022
319.073
318.109
317.125
316.115
315.07
313.983
312.844
311.638
310.351
308.962
307.441
305.745
303.806
301.491
301.748
304.578
307.03
309.236
311.263
313.155
314.938
316.633
318.254
319.813
321.318
322.778
324.198
325.583
326.936
328.261
329.56
330.835
332.085
333.313
334.517
335.698
336.855
337.986
339.09
340.166
341.21
342.222
343.197
344.135
345.033
345.887
346.695
347.454
348.162
348.816
349.414
349.953
350.432
350.848
351.2
351.487
351.707
351.859
351.943
351.96
351.908
351.788
351.602
351.35
351.034
350.655
350.215
349.717
349.163
348.556
347.899
347.194
346.446
345.657
344.831
343.971
343.082
342.166
341.227
340.269
339.295
338.307
337.31
336.305
335.297
334.286
333.275
332.266
331.26
330.259
329.264
328.274
327.291
326.313
325.341
324.372
323.405
322.439
321.469
320.494
319.51
318.511
317.492
316.448
315.37
314.25
313.078
311.841
310.522
309.101
307.549
305.823
303.852
301.506
301.773
304.653
307.156
309.411
311.49
313.432
315.265
317.01
318.682
320.291
321.848
323.358
324.829
326.264
327.669
329.044
330.394
331.719
333.019
334.297
335.551
336.781
337.986
339.165
340.316
341.438
342.527
343.582
344.601
345.58
346.517
347.408
348.252
349.045
349.785
350.468
351.093
351.657
352.157
352.592
352.961
353.261
353.491
353.651
353.739
353.757
353.704
353.579
353.386
353.123
352.793
352.398
351.939
351.419
350.841
350.207
349.521
348.786
348.004
347.181
346.318
345.421
344.492
343.536
342.556
341.555
340.538
339.507
338.466
337.417
336.364
335.309
334.254
333.202
332.153
331.109
330.071
329.04
328.015
326.997
325.985
324.978
323.973
322.969
321.963
320.953
319.933
318.9
317.848
316.77
315.66
314.508
313.305
312.036
310.687
309.236
307.653
305.897
303.897
301.521
301.797
304.726
307.278
309.582
311.709
313.7
315.583
317.377
319.098
320.756
322.362
323.922
325.443
326.928
328.382
329.807
331.206
332.58
333.93
335.257
336.559
337.838
339.09
340.316
341.514
342.68
343.814
344.913
345.973
346.992
347.968
348.897
349.776
350.602
351.373
352.086
352.737
353.325
353.847
354.301
354.685
354.998
355.239
355.406
355.499
355.518
355.463
355.335
355.133
354.86
354.517
354.106
353.628
353.087
352.485
351.825
351.111
350.345
349.531
348.673
347.775
346.84
345.873
344.877
343.856
342.813
341.754
340.68
339.596
338.504
337.407
336.309
335.21
334.115
333.023
331.937
330.858
329.786
328.721
327.663
326.612
325.566
324.524
323.484
322.443
321.397
320.343
319.276
318.191
317.082
315.94
314.757
313.523
312.225
310.846
309.365
307.754
305.969
303.94
301.535
301.821
304.797
307.396
309.748
311.922
313.96
315.891
317.733
319.501
321.208
322.862
324.47
326.038
327.572
329.074
330.548
331.995
333.418
334.816
336.19
337.541
338.866
340.166
341.438
342.68
343.892
345.069
346.21
347.311
348.37
349.384
350.35
351.264
352.123
352.924
353.665
354.343
354.954
355.498
355.97
356.371
356.697
356.947
357.122
357.22
357.24
357.184
357.051
356.842
356.559
356.203
355.776
355.28
354.718
354.093
353.407
352.665
351.869
351.023
350.131
349.198
348.227
347.221
346.186
345.125
344.042
342.94
341.825
340.698
339.563
338.424
337.283
336.142
335.004
333.871
332.743
331.623
330.511
329.406
328.31
327.221
326.138
325.059
323.983
322.907
321.827
320.74
319.64
318.523
317.383
316.21
314.998
313.734
312.407
310.999
309.49
307.85
306.037
303.981
301.549
301.844
304.865
307.51
309.908
312.128
314.212
316.188
318.077
319.891
321.645
323.345
325
326.616
328.196
329.745
331.266
332.761
334.23
335.676
337.097
338.494
339.865
341.21
342.527
343.814
345.069
346.289
347.471
348.613
349.711
350.762
351.763
352.711
353.603
354.435
355.203
355.907
356.542
357.106
357.597
358.013
358.352
358.612
358.794
358.896
358.918
358.861
358.723
358.508
358.215
357.846
357.404
356.89
356.308
355.659
354.949
354.179
353.354
352.477
351.553
350.585
349.577
348.535
347.461
346.361
345.238
344.096
342.939
341.77
340.594
339.413
338.23
337.047
335.868
334.694
333.526
332.366
331.214
330.071
328.937
327.81
326.691
325.577
324.466
323.356
322.243
321.123
319.992
318.844
317.673
316.471
315.229
313.937
312.582
311.146
309.61
307.943
306.104
304.021
301.562
301.866
304.931
307.62
310.062
312.326
314.455
316.476
318.408
320.268
322.066
323.812
325.512
327.173
328.799
330.394
331.961
333.501
335.016
336.507
337.974
339.416
340.832
342.222
343.582
344.913
346.21
347.471
348.694
349.875
351.011
352.099
353.135
354.116
355.039
355.9
356.697
357.425
358.083
358.667
359.176
359.607
359.959
360.23
360.419
360.525
360.549
360.49
360.348
360.126
359.823
359.442
358.985
358.454
357.852
357.182
356.447
355.65
354.797
353.889
352.933
351.931
350.889
349.81
348.699
347.561
346.398
345.217
344.019
342.811
341.594
340.372
339.148
337.925
336.706
335.491
334.284
333.085
331.895
330.714
329.543
328.38
327.225
326.077
324.932
323.789
322.643
321.492
320.331
319.153
317.952
316.722
315.452
314.132
312.75
311.288
309.725
308.033
306.168
304.059
301.575
301.887
304.995
307.726
310.21
312.517
314.688
316.752
318.728
320.631
322.472
324.261
326.005
327.71
329.38
331.019
332.63
334.214
335.774
337.309
338.819
340.305
341.765
343.197
344.601
345.973
347.311
348.613
349.875
351.094
352.267
353.39
354.461
355.474
356.428
357.317
358.14
358.893
359.573
360.178
360.704
361.15
361.514
361.795
361.991
362.102
362.127
362.067
361.922
361.693
361.381
360.988
360.517
359.969
359.347
358.656
357.897
357.075
356.193
355.257
354.269
353.235
352.159
351.045
349.897
348.722
347.521
346.301
345.065
343.817
342.56
341.299
340.035
338.773
337.514
336.261
335.016
333.779
332.552
331.334
330.127
328.93
327.74
326.558
325.381
324.206
323.029
321.848
320.656
319.45
318.221
316.963
315.666
314.32
312.911
311.424
309.836
308.119
306.229
304.095
301.587
301.907
305.056
307.827
310.352
312.7
314.912
317.017
319.034
320.978
322.861
324.692
326.478
328.225
329.937
331.619
333.272
334.899
336.501
338.079
339.632
341.16
342.661
344.135
345.58
346.992
348.37
349.711
351.011
352.267
353.476
354.634
355.737
356.782
357.765
358.682
359.531
360.308
361.009
361.633
362.176
362.637
363.013
363.303
363.506
363.622
363.648
363.587
363.438
363.203
362.883
362.478
361.993
361.429
360.789
360.077
359.295
358.448
357.54
356.575
355.557
354.492
353.383
352.235
351.052
349.84
348.604
347.346
346.072
344.786
343.491
342.191
340.89
339.589
338.293
337.002
335.72
334.446
333.183
331.931
330.689
329.457
328.235
327.02
325.812
324.606
323.399
322.188
320.969
319.734
318.478
317.193
315.871
314.499
313.066
311.554
309.942
308.201
306.287
304.13
301.599
301.927
305.114
307.924
310.487
312.874
315.125
317.269
319.326
321.309
323.232
325.103
326.929
328.716
330.469
332.191
333.885
335.553
337.196
338.815
340.408
341.977
343.519
345.033
346.517
347.968
349.384
350.762
352.099
353.39
354.634
355.824
356.959
358.034
359.046
359.99
360.864
361.664
362.386
363.029
363.588
364.063
364.451
364.751
364.96
365.08
365.108
365.046
364.894
364.653
364.324
363.909
363.41
362.831
362.173
361.441
360.637
359.767
358.833
357.84
356.794
355.698
354.557
353.376
352.161
350.914
349.642
348.349
347.038
345.716
344.384
343.047
341.709
340.372
339.039
337.712
336.394
335.086
333.788
332.502
331.227
329.962
328.708
327.463
326.223
324.988
323.753
322.514
321.267
320.005
318.724
317.414
316.066
314.67
313.213
311.678
310.043
308.279
306.343
304.164
301.61
301.945
305.169
308.015
310.616
313.04
315.328
317.509
319.603
321.624
323.584
325.493
327.358
329.183
330.975
332.736
334.468
336.175
337.857
339.514
341.147
342.754
344.335
345.887
347.408
348.897
350.35
351.763
353.135
354.461
355.737
356.959
358.125
359.229
360.268
361.238
362.135
362.957
363.7
364.36
364.936
365.424
365.823
366.131
366.348
366.471
366.502
366.439
366.283
366.037
365.7
365.275
364.763
364.169
363.495
362.743
361.919
361.025
360.067
359.049
357.975
356.85
355.679
354.467
353.219
351.939
350.633
349.306
347.961
346.603
345.236
343.864
342.491
341.119
339.751
338.39
337.037
335.695
334.365
333.046
331.739
330.444
329.159
327.884
326.616
325.352
324.089
322.824
321.55
320.264
318.957
317.623
316.252
314.833
313.353
311.795
310.139
308.353
306.396
304.195
301.62
301.962
305.221
308.102
310.737
313.196
315.519
317.735
319.864
321.921
323.917
325.862
327.762
329.624
331.452
333.25
335.019
336.763
338.482
340.176
341.846
343.489
345.106
346.695
348.252
349.776
351.264
352.711
354.116
355.474
356.782
358.034
359.229
360.36
361.425
362.42
363.34
364.183
364.945
365.623
366.213
366.715
367.125
367.442
367.664
367.792
367.824
367.76
367.602
367.35
367.006
366.571
366.048
365.44
364.749
363.98
363.136
362.221
361.239
360.196
359.096
357.943
356.744
355.502
354.223
352.913
351.575
350.214
348.836
347.445
346.045
344.639
343.232
341.827
340.426
339.032
337.648
336.274
334.911
333.562
332.225
330.9
329.586
328.283
326.987
325.697
324.408
323.117
321.819
320.508
319.178
317.821
316.427
314.987
313.485
311.907
310.229
308.423
306.446
304.225
301.63
301.978
305.269
308.183
310.851
313.342
315.698
317.947
320.109
322.2
324.229
326.208
328.142
330.038
331.9
333.732
335.537
337.315
339.069
340.798
342.502
344.18
345.831
347.454
349.045
350.602
352.123
353.603
355.039
356.428
357.765
359.046
360.268
361.425
362.515
363.533
364.475
365.338
366.118
366.812
367.417
367.931
368.351
368.676
368.905
369.036
369.07
369.006
368.845
368.589
368.237
367.793
367.259
366.638
365.932
365.146
364.283
363.348
362.345
361.278
360.153
358.975
357.748
356.479
355.171
353.831
352.462
351.071
349.662
348.24
346.808
345.371
343.932
342.495
341.063
339.638
338.223
336.818
335.427
334.048
332.682
331.329
329.989
328.659
327.337
326.021
324.708
323.393
322.071
320.738
319.386
318.007
316.593
315.131
313.61
312.011
310.314
308.489
306.492
304.253
301.64
301.994
305.314
308.259
310.957
313.478
315.865
318.145
320.338
322.459
324.52
326.53
328.495
330.423
332.318
334.182
336.018
337.829
339.615
341.377
343.113
344.824
346.508
348.162
349.785
351.373
352.924
354.435
355.9
357.317
358.682
359.99
361.238
362.42
363.533
364.573
365.535
366.417
367.214
367.923
368.542
369.067
369.497
369.83
370.065
370.2
370.236
370.172
370.008
369.747
369.39
368.937
368.393
367.759
367.04
366.238
365.358
364.404
363.38
362.292
361.144
359.941
358.689
357.393
356.059
354.69
353.294
351.874
350.436
348.984
347.522
346.055
344.587
343.12
341.659
340.205
338.761
337.329
335.909
334.503
333.11
331.731
330.365
329.01
327.664
326.324
324.988
323.651
322.307
320.953
319.58
318.181
316.747
315.266
313.726
312.109
310.394
308.551
306.536
304.28
301.648
302.007
305.356
308.328
311.054
313.604
316.018
318.326
320.548
322.698
324.787
326.826
328.821
330.779
332.703
334.597
336.463
338.304
340.12
341.911
343.678
345.419
347.132
348.816
350.468
352.086
353.665
355.203
356.697
358.14
359.531
360.864
362.135
363.34
364.475
365.535
366.517
367.416
368.229
368.952
369.584
370.12
370.56
370.9
371.14
371.279
371.316
371.252
371.087
370.822
370.458
369.998
369.445
368.8
368.067
367.251
366.355
365.383
364.341
363.232
362.063
360.838
359.562
358.242
356.882
355.488
354.066
352.619
351.154
349.674
348.185
346.691
345.195
343.701
342.212
340.732
339.261
337.802
336.357
334.925
333.508
332.105
330.714
329.336
327.968
326.606
325.248
323.89
322.526
321.152
319.76
318.342
316.89
315.391
313.834
312.2
310.468
308.608
306.577
304.304
301.656
302.02
305.394
308.392
311.143
313.718
316.158
318.492
320.74
322.916
325.032
327.097
329.119
331.103
333.054
334.975
336.869
338.737
340.581
342.4
344.194
345.962
347.703
349.414
351.093
352.737
354.343
355.907
357.425
358.893
360.308
361.664
362.957
364.183
365.338
366.417
367.416
368.331
369.159
369.896
370.539
371.086
371.534
371.881
372.126
372.269
372.308
372.243
372.076
371.808
371.439
370.972
370.41
369.755
369.011
368.181
367.27
366.283
365.223
364.096
362.907
361.661
360.365
359.022
357.64
356.222
354.775
353.304
351.814
350.309
348.795
347.275
345.754
344.235
342.721
341.216
339.72
338.237
336.768
335.313
333.873
332.447
331.036
329.636
328.247
326.865
325.487
324.11
322.728
321.335
319.925
318.491
317.021
315.506
313.933
312.283
310.535
308.66
306.614
304.326
301.664
302.031
305.428
308.449
311.223
313.821
316.284
318.642
320.912
323.112
325.252
327.341
329.387
331.395
333.37
335.316
337.234
339.128
340.996
342.84
344.659
346.452
348.217