/*--------------------------------*- C++ -*----------------------------------*\
  =========                 |
  \\      /  F ield         | OpenFOAM: The Open Source CFD Toolbox
   \\    /   O peration     | Website:  https://openfoam.org
    \\  /    A nd           | Version:  9
     \\/     M anipulation  |
\*---------------------------------------------------------------------------*/
FoamFile
{
    format      ascii;
    class       volScalarField;
    location    "0.2";
    object      gradTy;
}
// * * * * * * * * * * * * * * * * * * * * * * * * * * * * * * * * * * * * * //

dimensions      [0 -1 0 1 0 0 0];

internalField   nonuniform List<scalar> 
200000
(
5015.65
10013.7
13059.6
15187.8
16812.6
18128.7
19240.6
20210.3
21077.3
21868.8
22604.1
23297.1
23958.6
24596.7
25217.5
25826
26425.6
27019.1
27608.3
28194.5
28778.3
29359.6
29938.3
30513.3
31083.7
31647.9
32204.3
32750.8
33285.4
33805.6
34309.1
34793.3
35255.8
35693.9
36105.2
36487.2
36837.6
37154.1
37434.8
37677.9
37881.6
38044.7
38166
38244.7
38280.3
38272.5
38221.5
38127.5
37991.3
37813.9
37596.4
37340.5
37047.8
36720.5
36360.7
35970.8
35553.3
35111
34646.6
34162.9
33662.9
33149.3
32625.1
32092.9
31555.7
31015.9
30476
29938.3
29405
28878
28359
27849.5
27350.8
26863.8
26389.2
25927.5
25478.8
25042.8
24619
24206.6
23804.2
23410.3
23022.6
22638.5
22254.8
21867.5
21472
21062.4
20631.5
20170.6
19668.3
19110.1
18476.2
17739.5
16860
15775.6
14382
12484.5
9668.78
4900.71
2290.62
5753.33
8286.11
10210.7
11741.5
13008.6
14092.7
15045.5
15902
16686.8
17417.8
18108.2
18768.3
19405.9
20026.8
20635.8
21236.4
21831.2
22422
23009.9
23595.5
24178.9
24759.7
25337
25909.6
26476.2
27034.9
27583.8
28120.7
28643.2
29149
29635.4
30100
30540.2
30953.5
31337.3
31689.4
32007.5
32289.7
32534
32738.8
32902.8
33024.8
33104
33140
33132.3
33081.2
32987
32850.3
32672.2
32453.9
32196.9
31903.1
31574.4
31213
30821.4
30402.2
29957.9
29491.5
29005.6
28503.4
27987.5
27460.9
26926.4
26386.7
25844.5
25302.1
24762
24226.3
23696.9
23175.6
22663.9
22163
21673.9
21197.3
20733.7
20283.2
19845.5
19420.3
19006.5
18603
18208
17819.6
17435
17051.2
16664.2
16269.4
15861.2
15432.6
14975.2
14478
13927.4
13305
12586
11735.2
10700.6
9401.92
7708.85
5407.15
2175.26
1368.85
3805.24
5826.2
7490.15
8880.64
10067.7
11103.5
12026.2
12863.4
13635.7
14358.8
15044.4
15702
16338.5
16959.7
17570
18172.6
18769.9
19363.7
19955.1
20544.5
21132
21717
22298.7
22875.9
23447
24010.4
24564
25105.5
25632.7
26143
26633.9
27102.7
27547
27964.2
28351.7
28707.2
29028.5
29313.4
29560.2
29767.2
29933
30056.4
30136.7
30173.3
30166
30114.7
30019.9
29882.4
29702.9
29482.9
29223.9
28927.7
28596.2
28231.8
27836.9
27414
26965.9
26495.4
26005.3
25498.6
24978.2
24446.9
23907.6
23363.1
22816
22268.8
21723.9
21183.5
20649.4
20123.5
19607.3
19102
18608.8
18128.2
17660.8
17206.7
16765.8
16337.5
15921
15515.1
15118.2
14728.3
14342.8
13958.6
13572.1
13178.8
12773.3
12349
11898.1
11410.6
10874.2
10272.8
9585.71
8784.85
7832.17
6675.44
5244.71
3456.53
1252.64
963.774
2789.2
4419.12
5843.64
7087.25
8182.46
9159.56
10043.9
10855.9
11611.8
12324.2
13003.4
13657.6
14293
14914.8
15527
16132.6
16733.8
17332.3
17928.8
18523.8
19117.3
19708.6
20296.8
20880.8
21458.8
22029.2
22589.7
23138.2
23672.2
24189.2
24686.7
25161.9
25612.3
26035.2
26428.2
26788.7
27114.7
27403.8
27654.4
27864.6
28033
28158.6
28240.5
28278.1
28271.1
28219.6
28124.1
27985.2
27803.8
27581.3
27319.2
27019.4
26683.9
26315
25915.1
25486.9
25033.1
24556.5
24060.1
23546.8
23019.5
22481.3
21935
21383.3
20829
20274.7
19722.6
19175
18634
18101.3
17578.4
17066.7
16567.2
16080.8
15607.7
15148.4
14702.5
14269.7
13849.2
13439.8
13040
12647.8
12260.8
11876.1
11490.1
11098.7
10696.9
10278.6
9836.73
9362.47
8845.16
8271.59
7625.3
6885.73
6027.44
5020.12
3831.34
2436.72
846.311
746.017
2194.95
3543.98
4772.48
5882.8
6887.91
7803.99
8646.92
9430.87
10167.9
10868.3
11540.2
12190.6
12825.1
13448
14063
14672.7
15279.2
15883.7
16487.1
17089.6
17690.9
18290.6
18887.5
19480.3
20067.4
20646.8
21216.5
21774.1
22317.2
22843
23349.1
23832.7
24291.1
24721.7
25121.8
25489
25821.1
26115.8
26371.2
26585.7
26757.7
26886.1
26970
27008.9
27002.4
26950.8
26854.2
26713.5
26529.6
26303.8
26037.7
25733.3
25392.4
25017.6
24611.2
24175.9
23714.5
23230
22725.3
22203.3
21667.2
21119.8
20564.2
20003.1
19439.4
18875.5
18314.1
17757.2
17207
16665.3
16133.6
15613.5
15105.8
14611.6
14131.1
13664.8
13212.4
12773.7
12347.9
11933.8
11530.1
11134.8
10745.7
10360.1
9974.67
9585.49
9188.02
8776.87
8345.68
7886.94
7391.78
6849.64
6248.16
5572.97
4808.12
3937.41
2947.96
1837.52
626.909
612.408
1815.67
2963.65
4038.56
5035.96
5959.75
6817.97
7620.14
8375.76
9093.6
9781.44
10446
11092.8
11726.7
12351.6
12970.3
13585.3
14198.3
14810.5
15422.3
16034
16645.1
17255
17862.5
18466.3
19064.5
19655.1
20236.1
20804.9
21359
21895.8
22412.5
22906.3
23374.6
23814.5
24223.4
24598.9
24938.5
25240
25501.4
25721.1
25897.5
26029.3
26115.8
26156.3
26150.5
26098.5
26000.7
25857.8
25670.8
25441
25170.1
24859.9
24512.5
24130.4
23716
23272.1
22801.5
22307.3
21792.3
21259.7
20712.7
20154.1
19587.1
19014.5
18439.1
17863.7
17290.6
16722.3
16160.8
15608.1
15065.7
14535.1
14017.5
13513.6
13024
12549.1
12088.8
11642.8
11210.3
10790.4
10381.8
9982.64
9590.87
9203.91
8818.73
8431.79
8038.98
7635.51
7215.9
6773.81
6302.02
5792.37
5235.77
4622.54
3943.09
3189.37
2357.55
1452.21
491.286
523.398
1558.13
2560.23
3516.61
4421.7
5275.63
6082.09
6846.65
7575.56
8275.07
8951.04
9608.72
10252.7
10886.9
11514.4
12138
12759.5
13380.4
14001.6
14623.5
15246
15868.7
16490.7
17110.7
17727.2
18338.5
18942.4
19536.5
20118.5
20685.6
21235.2
21764.3
22270.2
22750
23200.9
23620.2
24005.3
24353.8
24663.3
24931.8
25157.6
25339.1
25475.1
25564.5
25607
25602
25549.7
25450.5
25305
25114.4
24879.9
24603.3
24286.3
23931.3
23540.7
23116.9
22662.9
22181.5
21675.8
21148.9
20603.9
20044
19472.3
18891.9
18305.7
17716.8
17127.7
16541.1
15959.3
15384.6
14818.9
14264
13721.1
13191.7
12676.5
12176.3
11691.3
11221.6
10766.9
10326.6
9899.82
9485.31
9081.45
8686.27
8297.42
7912.13
7527.21
7138.97
6743.25
6335.35
5909.99
5461.38
4983.26
4469.09
3912.41
3307.59
2650.93
1942.37
1187.61
399.927
460.979
1375.69
2270.26
3135.53
3966.63
4762.41
5524.41
6255.88
6960.92
7643.99
8309.45
8961.39
9603.48
10238.9
10870.3
11499.8
12129.1
12759.2
13390.9
14024.3
14659.2
15295.1
15930.8
16565
17196.2
17822.3
18441.1
19050.3
19647.2
20229.1
20793.2
21336.5
21856.1
22349
22812.5
23243.5
23639.6
23998.1
24316.7
24593.3
24826.1
25013.5
25154.1
25247
25291.6
25287.6
25235
25134.2
24985.8
24791.1
24551.4
24268.2
23943.7
23580.1
23179.8
22745.4
22279.9
21786.3
21267.7
20727.1
20168
19593.5
19006.9
18411.3
17809.8
17205.4
16600.8
15998.8
15401.9
14812.2
14231.7
13662.4
13105.7
12562.9
12034.9
11522.4
11025.9
10545.5
10080.9
9631.66
9196.95
8775.62
8366.2
7966.88
7575.51
7189.58
6806.22
6422.18
6033.82
5637.14
5227.78
4801.1
4352.3
3876.66
3369.85
2828.55
2251.23
1639.12
997.215
334.855
415.777
1242.81
2057.09
2852.36
3624.91
4373.39
5098.37
5801.81
6486.48
7155.58
7812.38
8460.07
9101.56
9739.41
10375.8
11012.4
11650.7
12291.3
12934.8
13581.1
14229.9
14880.3
15531.3
16181.4
16828.7
17471.2
18106.6
18732.4
19345.9
19944.2
20524.4
21083.4
21618.1
22125.7
22602.9
23047.1
23455.3
23824.9
24153.7
24439.3
24679.8
24873.7
25019.5
25116.3
25163.4
25160.4
25107.5
25004.9
24853.5
24654.3
24408.7
24118.4
23785.6
23412.4
23001.4
22555.4
22077.2
21570.1
21037.1
20481.5
19906.8
19316.2
18713.1
18100.7
17482.2
16860.7
16239
15620
15006.1
14399.8
13803.1
13217.9
12645.8
12088.1
11545.9
11019.9
10510.6
10018.3
9542.65
9083.4
8639.76
8210.71
7794.89
7390.68
6996.1
6608.89
6226.47
5845.97
5464.24
5077.84
4683.18
4276.49
3854.07
3412.42
2948.57
2460.49
1947.61
1411.35
855.587
286.738
382.403
1144.36
1898.19
2639.77
3366.45
4077.16
4772.14
5452.65
6120.66
6778.54
7428.81
8073.94
8716.26
9357.84
10000.4
10645.4
11293.7
11946
12602.4
13262.9
13926.8
14593.2
15260.8
15928
16592.9
17253.2
17906.7
18550.5
19182
19798
20395.6
20971.6
21522.9
22046.2
22538.5
22996.9
23418.3
23800.1
24139.8
24435.2
24684.2
24885.1
25036.6
25137.6
25187.5
25185.7
25132.5
25028.1
24873.3
24669.3
24417.4
24119.5
23777.6
23394.1
22971.6
22512.9
22021.1
21499.3
20950.8
20379
19787.4
19179.4
18558.4
17927.8
17290.9
16650.9
16010.7
15373.2
14741
14116.7
13502.3
12899.9
12311
11737.2
11179.5
10638.9
10115.7
9610.36
9122.73
8652.5
8199.04
7761.42
7338.43
6928.57
6530.05
6140.84
5758.62
5380.84
5004.75
4627.4
4245.76
3856.76
3457.45
3045.14
2617.69
2173.74
1713.04
1236.78
747.734
250.233
357.512
1070.77
1778.97
2479.49
3170.65
3851.75
4523.01
5185.4
5840.41
6489.89
7135.81
7780.15
8424.79
9071.37
9721.29
10375.6
11035.1
11700.1
12370.7
13046.3
13726.4
14409.9
15095.2
15780.7
16464.3
17143.7
17816.3
18479.4
19129.9
19764.9
20381.1
20975.2
21544
22084.2
22592.6
23066
23501.5
23896.3
24247.8
24553.6
24811.7
25020.2
25177.8
25283.4
25336.2
25335.8
25282.2
25176
25017.7
24808.6
24550.1
24244.1
23892.7
23498.2
23063.5
22591.4
22085.1
21547.7
20982.8
20393.8
19784.2
19157.7
18517.7
17867.8
17211.3
16551.5
15891.6
15234.4
14582.8
13939.3
13306.1
12685.3
12078.7
11487.7
10913.5
10357.2
9819.17
9299.89
8799.37
8317.35
7853.28
7406.34
6975.44
6559.21
6156.04
5764.07
5381.23
5005.23
4633.66
4263.94
3893.49
3519.72
3140.2
2752.78
2355.77
1948.12
1529.61
1101.04
664.243
222.043
338.894
1015.65
1689.47
2358.83
3022.83
3681.17
4334.22
4982.83
5628.25
6272
6915.71
7560.98
8209.35
8862.16
9520.51
10185.2
10856.8
11535.4
12220.9
12912.6
13609.8
14311.1
15015.1
15719.8
16423
17122.3
17815
18498.2
19168.8
19823.6
20459.3
21072.5
21659.7
22217.6
22742.8
23232.1
23682.4
24090.8
24454.6
24771.4
25039
25255.6
25419.7
25530
25586
25587.1
25533.4
25425.2
25263.3
25049
24783.7
24469.2
24107.8
23702
23254.6
22768.5
22247
21693.4
21111.3
20504.3
19875.9
19230
18570.2
17900
17223.1
16542.7
15862.1
15184.4
14512.4
13848.8
13195.9
12555.8
11930.5
11321.5
10730.1
10157.3
9603.68
9069.77
8555.65
8061.15
7585.81
7128.9
6689.44
6266.19
5857.68
5462.22
5077.92
4702.74
4334.49
3970.93
3609.78
3248.79
2885.9
2519.26
2147.43
1769.46
1385.01
994.457
598.888
200.014
325.015
974.536
1622.62
2268.61
2912.18
3553.46
4192.97
4831.59
5470.47
6110.93
6754.37
7402.15
8055.55
8715.66
9383.36
10059.3
10743.7
11436.6
12137.6
12846
13560.9
14280.8
15004
15728.5
16452
17171.8
17885.3
18589.3
19280.6
19955.9
20611.7
21244.4
21850.7
22426.8
22969.4
23475.1
23940.8
24363.3
24739.9
25068.1
25345.6
25570.6
25741.4
25856.8
25916.1
25918.8
25865
25754.9
25589.5
25369.8
25097.5
24774.4
24402.9
23985.5
23525
23024.5
22487.4
21917.2
21317.4
20691.8
20044.2
19378.4
18698.1
18007.1
17309
16607.4
15905.5
15206.6
14513.6
13829.3
13156.1
12496.2
11851.6
11224
10614.7
10024.8
9455.1
8906.03
8377.79
7870.29
7383.16
6915.77
6467.22
6036.39
5621.92
5222.27
4835.72
4460.4
4094.32
3735.46
3381.78
3031.27
2682.07
2332.54
1981.33
1627.46
1270.44
910.252
547.363
182.667
314.757
944.146
1573.21
2201.93
2830.48
3459.32
4089.2
4721.05
5356.01
5995.29
6640.15
7291.8
7951.31
8619.61
9297.39
9985.08
10682.8
11390.5
12107.5
12833
13566
14304.7
15047.5
15792.2
16536.2
17277
18011.5
18736.6
19449
20145.1
20821.3
21474
22099.6
22694.4
23254.7
23777.2
24258.4
24695.4
25085.1
25424.9
25712.6
25946.1
26123.9
26244.6
26307.4
26311.9
26258
26146.1
25977.1
25752.1
25472.8
25141.1
24759.4
24330.2
23856.5
23341.5
22788.7
22201.6
21583.9
20939.6
20272.4
19586.4
18885.4
18173.3
17453.8
16730.6
16007.1
15286.7
14572.3
13866.9
13173.1
12493
11828.9
11182.3
10554.9
9947.61
9361.42
8796.85
8254.17
7733.35
7234.09
6755.84
6297.81
5858.94
5438.01
5033.58
4644.05
4267.7
3902.71
3547.2
3199.28
2857.13
2519.01
2183.36
1848.86
1514.46
1179.46
843.504
506.58
168.946
307.278
921.996
1537.24
2153.46
2771.26
3391.4
4014.81
4642.53
5275.72
5915.56
6563.24
7219.83
7886.3
8563.43
9251.77
9951.62
10663
11385.6
12118.7
12861.4
13612.5
14370.2
15132.6
15897.4
16662.1
17423.7
18179.4
18925.6
19659
20375.9
21072.7
21745.5
22390.4
23003.9
23582
24121.3
24618.3
25069.7
25472.6
25824.3
26122.2
26364.4
26549.2
26675.3
26741.8
26748.1
26694.3
26580.8
26408.3
26178.2
25892
25551.7
25159.8
24719
24232.3
23702.9
23134.4
22530.5
21895
21231.9
20545.3
19839.1
19117.4
18384.1
17643.3
16898.5
16153.5
15411.5
14675.8
13949.3
13234.8
12534.5
11850.7
11185.2
10539.5
9914.83
9312.11
8731.96
8174.73
7640.45
7128.91
6639.61
6171.84
5724.65
5296.87
4887.17
4494.05
4115.91
3751.03
3397.65
3054
2718.33
2388.99
2064.45
1743.35
1424.55
1107.16
790.533
474.243
158.072
301.917
906.136
1511.53
2118.95
2729.33
3343.67
3963.09
4588.76
5221.88
5863.63
6515.14
7177.45
7851.43
8537.76
9236.87
9948.97
10673.9
11411.3
12160.4
12920.2
13689.1
14465.4
15247.1
16031.8
16816.8
17599.1
18375.5
19142.6
19896.7
20634.2
21351.2
22043.7
22707.9
23339.8
23935.5
24491.5
25004
25469.9
25885.9
26249.2
26557.4
26808.4
27000.3
27131.8
27201.9
27210.3
27156.7
27041.7
26866
26630.9
26338
25989.5
25587.8
25135.6
24636.1
24092.6
23508.8
22888.4
22235.5
21554
20848.2
20122.2
19380.2
18626.2
17864.3
17098.3
16332
15568.8
14812.1
14064.9
13330
12609.8
11906.7
11222.4
10558.7
9916.81
9297.73
8702.16
8130.5
7582.86
7059.08
6558.73
6081.17
5625.5
5190.64
4775.34
4378.18
3997.62
3632.03
3279.75
2939.05
2608.26
2285.74
1969.96
1659.51
1353.14
1049.77
748.503
448.598
149.451
298.142
894.988
1493.53
2094.92
2700.37
3311.1
3928.41
4553.56
5187.82
5832.4
6488.43
7156.9
7838.61
8534.19
9244
9968.12
10706.4
11458.2
12222.8
12999
13785.2
14579.6
15380
16183.9
16988.5
17790.7
18587.2
19374.5
20148.8
20906.2
21642.8
22354.5
23037.3
23687.1
24300.1
24872.2
25400
25879.9
26308.7
26683.6
27001.9
27261.4
27460.3
27597.2
27671.2
27681.6
27628.5
27512.2
27333.5
27093.8
26794.6
26438.3
26027.1
25564.1
25052.4
24495.4
23896.8
23260.6
22590.9
21891.7
21167.4
20422.3
19660.7
18886.7
18104.4
17318
16531.1
15747.4
14970.3
14203
13448.3
12708.8
11986.9
11284.5
10603.3
9944.66
9309.68
8699.11
8113.4
7552.71
7016.95
6505.76
6018.52
5554.42
5112.44
4691.36
4289.85
3906.42
3539.51
3187.48
2848.66
2521.41
2204.09
1895.13
1593.06
1296.52
1004.26
715.18
428.268
142.618
295.514
887.243
1481.08
2078.44
2680.74
3289.42
3905.89
4531.54
5167.71
5815.65
6476.48
7151.19
7840.54
8545.1
9265.19
10000.8
10751.7
11517.2
12296.5
13088.3
13890.9
14702.4
15520.5
16342.6
17165.8
17986.9
18802.5
19609
20402.4
21178.8
21934.1
22664.1
23364.6
24031.6
24661
25248.7
25791
26284.4
26725.6
27111.5
27439.6
27707.5
27913.3
28055.6
28133.3
28146
28093.5
27976.1
27794.8
27550.8
27246
26882.3
26462.4
25989.3
25466.1
24896.4
24284
23632.9
22947.2
22231.4
21489.7
20726.5
19946.2
19153.2
18351.7
17545.8
16739.4
15936.2
15139.8
14353.3
13579.9
12822
12082.2
11362.5
10664.7
9990.15
9340.03
8715.13
8115.99
7542.82
6995.58
6473.95
5977.38
5505.09
5056.11
4629.28
4223.3
3836.73
3468.05
3115.65
2777.89
2453.11
2139.67
1835.97
1540.45
1251.65
968.187
688.759
412.148
137.2
293.659
881.793
1472.37
2067.01
2667.33
3274.91
3891.3
4517.99
5156.4
5807.8
6473.34
7154
7850.55
8563.5
9293.12
10039.4
10801.9
11580.1
12373
13179.1
13996.8
14824.1
15658.6
16497.5
17338
18176.6
19009.9
19834.2
20645.3
21439.4
22212.1
22959.2
23676.4
24359.4
25004.1
25606.4
26162.5
26668.6
27121.4
27517.9
27855.2
28131.1
28343.5
28491
28572.5
28587.5
28535.7
28417.7
28234.2
27986.6
27676.6
27306.4
26878.6
26396.2
25862.6
25281.2
24656.1
23991.3
23291.1
22559.8
21802
21022.1
20224.7
19414.1
18594.8
17770.8
16946.3
16125
15310.6
14506.4
13715.5
12940.6
12184.2
11448.4
10735
10045.6
9381.35
8743.09
8131.41
7546.57
6988.57
6457.15
5951.79
5471.76
5016.12
4583.75
4173.38
3783.6
3412.93
3059.75
2722.45
2399.36
2088.8
1789.13
1498.73
1216.03
939.524
667.758
399.332
132.891
292.258
877.682
1465.82
2058.47
2657.39
3264.31
3880.89
4508.71
5149.24
5803.82
6473.61
7159.6
7862.53
8582.93
9321.01
10076.7
10849.6
11639.1
12444
13262.9
14094.2
14935.6
15784.7
16638.8
17494.7
18349.1
19198.4
20038.7
20865.9
21676
22464.5
23227.1
23959.4
24657
25315.8
25931.4
26500.1
27017.9
27481.5
27887.7
28233.7
28517.1
28735.8
28888.3
28973.5
28990.8
28940.1
28821.7
28636.5
28385.9
28071.5
27695.6
27261
26770.5
26227.6
25636
24999.6
24322.6
23609.4
22864.4
22092.1
21297.3
20484.4
19658
18822.5
17982.3
17141.5
16303.9
15473.3
14653
13846.3
13055.9
12284.5
11534.1
10806.7
10103.8
9426.72
8776.33
8153.26
7557.82
6990.04
6449.7
5936.32
5449.21
4987.44
4549.95
4135.47
3742.63
3369.93
3015.81
2678.61
2356.67
2048.27
1751.74
1465.37
1187.52
916.571
650.934
389.063
129.439
291.032
874.077
1460.06
2050.91
2648.53
3254.76
3871.34
4499.94
5142.09
5799.17
6472.38
7162.7
7870.89
8597.45
9342.58
10106.2
10887.9
11686.8
12502
13331.8
14174.6
15028.1
15889.8
16756.9
17626.2
18494.2
19357.4
20211.7
21052.9
21876.9
22679.3
23455.5
24201.1
24911.7
25582.8
26210.4
26790.2
27318.5
27791.8
28206.8
28560.7
28850.9
29075.4
29232.6
29321.4
29341.2
29291.7
29173.4
28987.1
28734.1
28416.3
28035.9
27595.5
27098.3
26547.7
25947.3
25301.4
24613.9
23889.5
23132.7
22348
21540.2
20714
19873.9
19024.6
18170.3
17315.2
16463.4
15618.7
14784.4
13963.9
13160.1
12375.4
11612.3
10872.6
10157.9
9469.63
8808.63
8175.59
7570.86
6994.52
6446.37
5925.97
5432.64
4965.51
4523.51
4105.41
3709.84
3335.32
2980.28
2643.07
2321.99
2015.32
1721.31
1438.21
1164.31
897.882
637.237
380.703
126.628
289.734
870.243
1453.87
2042.66
2638.62
3243.67
3859.65
4488.3
5131.18
5789.73
6465.17
7158.5
7870.47
8601.58
9352.03
10121.7
10910.1
11716.5
12539.7
13378.2
14230.2
15093.4
15965.3
16843
17723.2
18602.5
19477
20342.8
21195.7
22031.3
22845.2
23632.8
24389.6
25111.1
25792.8
26430.4
27019.8
27557.2
28038.8
28461.5
28822.2
29118.6
29348.3
29509.9
29602.1
29624.4
29576.4
29458.6
29271.8
29017.4
28697.1
28313.3
27868.6
27366.2
26809.5
26202.3
25548.7
24852.9
24119.5
23353.1
22558.3
21740
20902.9
20051.6
19190.8
18324.9
17458.1
16594.6
15738.2
14892.3
14060.4
13245.3
12449.8
11676
10926.1
10201.6
9504.01
8834.17
8192.84
7580.4
6996.95
6442.33
5916.12
5417.68
4946.14
4500.46
4079.42
3681.67
3305.74
2950.03
2612.91
2292.65
1987.5
1695.67
1415.38
1144.82
882.212
625.763
373.704
124.276
288.148
865.533
1446.18
2032.22
2625.75
3228.76
3843.17
4470.75
5113.14
5771.78
6447.93
7142.6
7856.56
8590.29
9343.99
10117.5
10910.4
11721.8
12550.6
13395.2
14253.8
15124
16003.3
16888.8
17777.1
18664.7
19547.8
20422.4
21284.1
22128.7
22951.5
23748
24513.5
25243.6
25933.6
26579.3
27176.5
27721.2
28209.7
28638.8
29005.3
29306.9
29541.2
29706.7
29802.2
29826.9
29780.7
29663.9
29477.3
29222.4
28900.8
28514.9
28067.5
27561.6
27000.7
26388.6
25729.6
25027.8
24287.9
23514.4
22712.2
21886.1
21040.8
20181.1
19311.7
18437
17561.4
16688.9
15823.6
14968.9
14128.2
13304.6
12500.6
11718.7
10960.9
10229
9524.15
8847.54
8199.85
7581.52
6992.66
6433.13
5902.56
5400.3
4925.52
4477.19
4054.1
3654.92
3278.16
2922.25
2585.52
2266.26
1962.67
1672.94
1395.23
1127.7
868.481
615.731
367.595
122.224
286.082
859.373
1436.03
2018.27
2608.24
3207.99
3819.5
4444.58
5084.9
5741.94
6416.97
7111.03
7824.87
8559
9313.58
10088.5
10883.2
11697
12528.6
13376.4
14238.6
15112.8
15996.4
16886.5
17779.8
18672.6
19561.2
20441.4
21308.9
22159.4
22988.2
23790.7
24562.3
25298.4
25994.4
26645.9
27248.7
27798.8
28292.5
28726.5
29097.6
29403.4
29641.5
29810.4
29908.9
29936.1
29891.9
29776.6
29591
29336.5
29014.9
28628.5
28179.9
27672.4
27109.5
26494.9
25832.8
25127.6
24383.9
23606.3
22799.6
21968.6
21118.3
20253.3
19378.4
18498.1
17616.7
16738.5
15867.3
15006.9
14160.4
13331.1
12521.6
11734.3
10971.3
10234.4
9524.8
8843.72
8191.86
7569.68
6977.33
6414.69
5881.39
5376.83
4900.17
4450.41
4026.35
3626.67
3249.88
2894.42
2558.61
2240.71
1938.93
1651.43
1376.32
1111.73
855.749
606.465
361.965
120.336
283.368
851.258
1422.6
1999.64
2584.59
3179.56
3786.53
4407.37
5043.76
5697.22
6369.01
7060.2
7771.55
8503.55
9256.39
10029.9
10823.6
11636.7
12468
13315.8
14178.3
15053.2
15937.8
16829.1
17723.9
18618.5
19509
20391.5
21261.5
22114.5
22946.1
23751.6
24526.3
25265.5
25964.7
26619.5
27225.7
27779.1
28276.1
28713.3
29087.7
29396.5
29637.7
29809.4
29910.5
29940.2
29898.2
29785
29601.2
29348.3
29028
28642.6
28194.8
27687.8
27125
26510.4
25848
25142.2
24397.6
23618.9
22810.9
21978.4
21126.4
20259.5
19382.6
18500.1
17616.5
16735.9
15862.4
14999.4
14150.5
13318.8
12506.8
11717.2
10951.9
10212.7
9501.11
8818.11
8164.5
7540.75
6947.05
6383.28
5849.11
5343.94
4866.96
4417.17
3993.4
3594.33
3218.49
2864.3
2530.1
2214.15
1914.62
1629.67
1357.4
1095.89
843.196
597.372
356.458
118.492
279.859
840.748
1405.14
1975.32
2553.52
3141.87
3742.4
4356.98
4987.32
5634.94
6301.13
6986.95
7693.16
8420.27
9168.45
9937.57
10727.1
11536.3
12363.9
13208.3
14067.6
14939.5
15821.4
16710.2
17602.8
18495.4
19384.2
20265.2
21134
21986.1
22817
23622
24396.5
25135.8
25835.4
26490.8
27097.7
27652.2
28150.5
28589.2
28965.2
29275.9
29519.1
29693
29796.4
29828.5
29789.1
29678.5
29497.4
29247.1
28929.6
28546.9
28101.8
27597.5
27037.4
26425.4
25765.5
25062.1
24319.9
23543.4
22737.6
21907.2
21057.1
20192
19316.8
18435.9
17553.8
16674.6
15802.2
14940.5
14092.7
13261.9
12450.9
11662.2
10897.8
10159.5
9448.69
8766.54
8113.81
7490.98
6898.25
6335.55
5802.53
5298.63
4823.05
4374.82
3952.77
3555.58
3181.82
2829.91
2498.19
2184.92
1888.27
1606.39
1337.36
1079.26
830.106
587.939
350.764
116.588
275.428
827.464
1383.02
1944.42
2513.88
3093.57
3685.5
4291.58
4913.51
5552.82
6210.8
6888.51
7586.72
8305.94
9046.35
9807.8
10589.8
11391.6
12211.9
13049.1
13901.4
14766.5
15641.8
16524.2
17410.5
18297.2
19180.3
20055.9
20919.6
21766.9
22593.4
23394.4
24165.3
24901.3
25598.1
26251.1
26856.2
27409.3
27906.6
28344.9
28720.9
29032.2
29276.3
29451.7
29557
29591.5
29554.9
29447.4
29269.9
29023.6
28710.3
28332.1
27891.9
27392.6
26837.8
26231.1
25576.8
24879.2
24142.7
23372
22572
21747.4
20903.1
20043.8
19174.2
18298.9
17422.2
16548.3
15681.2
14824.5
13981.6
13155.6
12349.2
11564.8
10804.7
10070.5
9363.62
8685.29
8036.25
7417.01
6827.78
6268.49
5738.83
5238.24
4765.95
4321
3902.24
3508.39
3137.99
2789.51
2461.29
2151.58
1858.59
1580.45
1315.25
1061.04
815.86
577.72
344.615
114.535
269.969
811.086
1355.73
1906.2
2464.73
3033.49
3614.48
4209.61
4820.57
5448.89
6095.86
6762.53
7449.69
8157.83
8887.14
9637.48
10408.4
11199
12008.2
12834.4
13675.8
14530
15394.5
16266.3
17142.2
18018.7
18892
19757.9
20612.4
21450.9
22269.1
23062.2
23825.8
24555.2
25245.8
25893.4
26493.8
27042.8
27536.9
27972.7
28347
28657.4
28901.4
29077.5
29184.3
29221.1
29187.5
29083.8
28910.7
28669.6
28362.1
27990.4
27557.1
27065.3
26518.4
25920.2
25274.6
24586.1
23858.9
23097.8
22307.4
21492.7
20658.2
19808.8
18949
18083.5
17216.4
16352.1
15494.3
14646.7
13812.7
12995.3
12197.3
11421
10668.7
9942.04
9242.45
8571.09
7928.74
7315.93
6732.86
6179.5
5655.54
5160.45
4693.47
4253.67
3839.93
3450.96
3085.35
2741.58
2418
2112.9
1824.47
1550.88
1290.22
1040.56
799.924
566.332
337.78
112.257
263.394
791.353
1322.81
1860.05
2405.3
2960.69
3528.23
4109.78
4707.06
5321.55
5954.55
6607.11
7279.99
7973.7
8688.42
9424.03
10180.1
10955.7
11749.9
12561
13387.2
14226.2
15075.7
15932.5
16793.7
17655.6
18514.6
19366.6
20207.6
21033.2
21838.9
22620.2
23372.6
24091.6
24772.7
25411.7
26004.3
26546.6
27035
27466.1
27837
28144.8
28387.6
28563.6
28671.4
28710.3
28679.9
28580.6
28413
28178.3
27878.2
27514.8
27090.8
26609.1
26073
25486.2
24852.7
24176.7
23462.6
22714.9
21938.3
21137.4
20317.1
19481.8
18636.3
17784.8
16931.8
16081.3
15237.2
14403
13582
12777.4
11991.7
11227.5
10486.7
9771.16
9082.28
8421.17
7788.65
7185.23
6611.14
6066.34
5550.56
5063.27
4603.76
4171.09
3764.18
3381.78
3022.49
2684.82
2367.15
2067.8
1784.98
1516.87
1261.6
1017.24
781.846
553.451
330.064
109.687
255.637
768.065
1283.94
1805.52
2334.98
2874.44
3425.88
3991.12
4571.86
5169.57
5785.52
6420.75
7076.01
7751.81
8448.35
9165.49
9902.81
10659.5
11434.5
12226.3
13033
13852.6
14682.5
15519.9
16361.8
17204.6
18044.8
18878.5
19701.5
20509.7
21298.7
22064.1
22801.5
23506.3
24174.4
24801.3
25383.1
25915.9
26396
26820.2
27185.6
27489.5
27729.8
27904.7
28013
28053.9
28027
27932.6
27771.4
27544.4
27253.4
26900.4
26487.9
26018.8
25496.4
24924.2
24306.2
23646.4
22949.1
22218.8
21460.1
20677.4
19875.5
19058.8
18232
17399.2
16564.7
15732.6
14906.5
14090.1
13286.5
12498.8
11729.7
10981.4
10256
9555.33
8880.71
8233.27
7613.83
7022.88
6460.67
5927.19
5422.15
4945.08
4495.26
4071.81
3673.66
3299.59
2948.25
2618.17
2307.78
2015.4
1739.32
1477.73
1228.78
990.594
761.25
538.807
321.305
106.771
246.649
741.075
1238.87
1742.25
2253.35
2774.23
3306.82
3852.93
4414.2
4992.08
5587.81
6202.41
6836.64
7490.97
8165.63
8860.48
9575.13
10308.8
11060.4
11828.6
12611.5
13407.1
14213
15026.4
15844.4
16663.5
17480.3
18291
19091.6
19878
20646
21391.3
22109.5
22796.4
23447.6
24059.1
24626.9
25147.2
25616.5
26031.5
26389.4
26687.7
26924.2
27097.2
27205.4
27248.1
27224.9
27136.1
26982.1
26764.2
26483.9
26143.3
25744.6
25290.8
24785
24230.6
23631.5
22991.6
22315.1
21606.2
20869.5
20109.4
19330.4
18536.9
17733.2
16923.7
16112.4
15303.2
14499.7
13705.6
12923.8
12157.4
11408.9
10680.6
9974.65
9292.62
8635.92
8005.64
7402.59
6827.28
6279.95
5760.59
5268.95
4804.57
4366.77
3954.68
3567.28
3203.39
2861.7
2540.77
2239.08
1955.01
1686.86
1432.9
1191.3
960.239
737.833
522.183
311.371
103.467
236.4
710.297
1187.47
1670.06
2160.14
2659.73
3170.69
3694.78
4233.6
4788.55
5360.85
5951.49
6561.21
7190.49
7839.53
8508.24
9196.23
9902.76
10626.8
11367
12121.7
12888.9
13666.1
14450.9
15240.3
16031
16819.8
17602.9
18376.5
19136.6
19879.2
20600.1
21295.1
21960.1
22590.8
23183.4
23734
24238.8
24694.6
25098.1
25446.6
25737.6
25968.9
26139
26246.6
26290.9
26271.6
26188.8
26043.1
25835.6
25567.7
25241.3
24858.9
24423
23936.7
23403.4
22826.6
22210.3
21558.4
20875.1
20164.8
19431.6
18679.9
17914.1
17138.3
16356.6
15573.1
14791.4
14015.2
13247.8
12492.3
11751.5
11027.9
10323.9
9641.26
8981.73
8346.64
7737.07
7153.79
6597.32
6067.89
5565.53
5089.98
4640.81
4217.38
3818.85
3444.25
3092.43
2762.13
2451.97
2160.47
1886.07
1627.13
1381.96
1148.8
925.877
711.361
503.41
300.162
99.7397
224.881
675.699
1129.67
1588.86
2055.28
2530.84
3017.37
3516.55
4029.92
4558.85
5104.51
5667.85
6249.59
6850.21
7469.92
8108.62
8765.96
9441.26
10133.5
10841.5
11563.5
12297.7
13041.8
13793.3
14549.4
15307.2
16063.2
16814.1
17556.1
18285.5
18998.3
19690.6
20358.3
20997.4
21603.9
22174.1
22704.2
23190.7
23630.2
24019.9
24356.9
24638.8
24863.7
25030
25136.3
25182
25166.7
25090.5
24954
24758.1
24504.2
24194.1
23830.2
23414.8
22951
22441.9
21891
21301.9
20678.5
20024.9
19345
18643.1
17923.3
17189.7
16446.3
15697.2
14946.1
14196.6
13452.2
12716.1
11991.3
11280.5
10586.2
9910.4
9255.14
8621.97
8012.21
7426.88
6866.76
6332.34
5823.88
5341.37
4884.63
4453.22
4046.53
3663.78
3304.04
2966.21
2649.08
2351.33
2071.54
1808.22
1559.79
1324.62
1101.03
887.296
681.669
482.37
287.606
95.5655
212.1
637.307
1065.53
1498.73
1938.84
2387.68
2846.99
3318.4
3803.36
4303.2
4819.02
5351.76
5902.1
6470.51
7057.2
7662.09
8284.85
8924.85
9581.16
10252.6
10937.6
11634.3
12340.7
13054.4
13772.8
14492.9
15211.6
15925.7
16631.7
17325.9
18004.6
18664
19300.3
19909.6
20488.3
21032.6
21539
22004.1
22424.8
22798.2
23121.7
23392.9
23610.1
23771.5
23876
23922.8
23911.6
23842.5
23716
23532.9
23294.6
23002.8
22659.6
22267.4
21828.9
21347.1
20825.4
20267.2
19676.2
19056.2
18411.1
17744.7
17061.2
16364.3
15657.9
14945.9
14231.8
13519
12811
12110.7
11421
10744.5
10083.6
9440.21
8816.28
8213.29
7632.52
7074.96
6541.35
6032.18
5547.7
5087.92
4652.67
4241.55
3853.98
3489.23
3146.4
2824.47
2522.3
2238.61
1972.07
1721.25
1484.65
1260.71
1047.83
844.368
648.655
458.99
273.657
90.9294
198.082
595.199
995.166
1399.85
1811.06
2230.53
2659.92
3100.75
3554.41
4022.15
4505.04
5003.95
5519.55
6052.28
6602.36
7169.72
7754.07
8354.82
8971.12
9601.83
10245.5
10900.5
11564.9
12236.3
12912.3
13590.3
14267.3
14940.1
15605.6
16260.2
16900.5
17522.9
18123.9
18699.7
19246.8
19761.8
20241.4
20682.2
21081.5
21436.3
21744.2
22003.1
22211.1
22366.6
22468.7
22516.4
22509.5
22447.9
22332.2
22163.1
21942
21670.3
21350
20983.3
20572.9
20121.6
19632.4
19108.6
18553.7
17971.3
17364.9
16738.4
16095.3
15439.5
14774.6
14104.1
13431.5
12760
12092.8
11432.6
10782.4
10144.4
9520.98
8914.04
8325.31
7756.26
7208.08
6681.73
6177.93
5697.14
5239.61
4805.38
4394.26
4005.92
3639.8
3295.22
2971.36
2667.23
2381.77
2113.78
1862.01
1625.1
1401.64
1190.16
989.146
797.047
612.28
433.239
258.299
85.8255
182.872
549.507
918.81
1292.52
1672.35
2059.91
2456.75
2864.3
3283.87
3716.63
4163.59
4625.57
5103.21
5596.93
6106.93
6633.19
7175.44
7733.13
8305.5
8891.5
9489.81
10098.9
10716.9
11341.7
11971.2
12602.7
13233.5
13860.8
14481.4
15092.3
15690.1
16271.6
16833.3
17371.8
17884
18366.4
18816
19229.8
19605
19938.9
20229.4
20474.2
20671.7
20820.5
20919.4
20967.7
20965.1
20911.5
20807.4
20653.5
20450.8
20201
19905.7
19567.1
19187.4
18769.4
18315.9
17830
17314.7
16773.6
16209.9
15627.2
15028.8
14418.4
13799.2
13174.6
12547.7
11921.8
11299.6
10683.9
10077.2
9481.9
8899.97
8333.32
7783.55
7252.05
6739.95
6248.17
5777.36
5327.99
4900.3
4494.33
4109.93
3746.78
3404.38
3082.11
2779.18
2494.7
2227.68
1977
1741.48
1519.87
1310.84
1113.04
925.025
745.362
572.566
405.131
241.539
80.256
166.53
500.413
836.761
1177.19
1523.26
1876.49
2238.29
2610.01
2992.84
3387.89
3796.08
4218.18
4654.8
5106.34
5573
6054.76
6551.39
7062.42
7587.14
8124.6
8673.63
9232.79
9800.42
10374.6
10953.3
11534.2
12114.8
12692.3
13264.2
13827.3
14378.7
14915.4
15434.1
15931.9
16405.6
16852.3
17269
17653
18001.7
18312.6
18583.7
18812.9
18998.6
19139.6
19234.7
19283.3
19285
19239.8
19148
19010.2
18827.5
18601.2
18332.9
18024.5
17678.1
17296.2
16881.4
16436.4
15964.3
15468
14950.8
14415.7
13866
13304.9
12735.5
12160.8
11583.9
11007.6
10434.6
9867.37
9308.27
8759.44
8222.84
7700.18
7192.96
6702.48
6229.8
5775.76
5341
4925.96
4530.87
4155.77
3800.55
3464.92
3148.42
2850.48
2570.4
2307.36
2060.42
1828.59
1610.77
1405.8
1212.46
1029.5
855.599
689.418
529.589
374.721
223.408
74.2315
149.132
448.146
749.404
1054.38
1364.5
1681.13
2005.59
2339.07
2682.71
3037.48
3404.25
3783.73
4176.48
4582.88
5003.12
5437.21
5884.95
6345.94
6819.53
7304.91
7801
8306.53
8820
9339.74
9863.83
10390.2
10916.6
11440.6
11959.8
12471.4
12972.7
13461
13933.3
14387
14819.2
15227.1
15608.1
15959.7
16279.6
16565.4
16815.2
17027.3
17200
17332.3
17423