/*--------------------------------*- C++ -*----------------------------------*\
  =========                 |
  \\      /  F ield         | OpenFOAM: The Open Source CFD Toolbox
   \\    /   O peration     | Website:  https://openfoam.org
    \\  /    A nd           | Version:  9
     \\/     M anipulation  |
\*---------------------------------------------------------------------------*/
FoamFile
{
    format      ascii;
    class       volScalarField;
    location    "0.2";
    object      gradTz;
}
// * * * * * * * * * * * * * * * * * * * * * * * * * * * * * * * * * * * * * //

dimensions      [0 -1 0 1 0 0 0];

internalField   nonuniform List<scalar> 
200000
(
-6343.33
-6865.88
-7019.48
-7075.5
-7100.15
-7112.72
-7119.86
-7124.25
-7127.11
-7129.08
-7130.48
-7131.52
-7132.31
-7132.93
-7133.44
-7133.85
-7134.21
-7134.53
-7134.81
-7135.06
-7135.3
-7135.53
-7135.75
-7135.96
-7136.16
-7136.36
-7136.55
-7136.74
-7136.92
-7137.1
-7137.27
-7137.44
-7137.6
-7137.75
-7137.89
-7138.03
-7138.15
-7138.26
-7138.36
-7138.45
-7138.53
-7138.59
-7138.64
-7138.67
-7138.69
-7138.69
-7138.68
-7138.66
-7138.62
-7138.57
-7138.5
-7138.42
-7138.33
-7138.22
-7138.11
-7137.98
-7137.84
-7137.7
-7137.55
-7137.39
-7137.23
-7137.06
-7136.89
-7136.71
-7136.54
-7136.36
-7136.18
-7136
-7135.83
-7135.66
-7135.48
-7135.31
-7135.15
-7134.98
-7134.82
-7134.66
-7134.5
-7134.34
-7134.17
-7134
-7133.82
-7133.62
-7133.4
-7133.15
-7132.86
-7132.51
-7132.07
-7131.51
-7130.79
-7129.82
-7128.48
-7126.58
-7123.78
-7119.45
-7112.38
-7099.88
-7075.28
-7019.33
-6865.79
-6343.3
-6865.88
-7870.74
-8225.87
-8370.91
-8438.89
-8474.69
-8495.38
-8508.23
-8516.67
-8522.49
-8526.65
-8529.73
-8532.09
-8533.95
-8535.45
-8536.7
-8537.77
-8538.71
-8539.55
-8540.32
-8541.04
-8541.72
-8542.37
-8543
-8543.61
-8544.2
-8544.78
-8545.35
-8545.9
-8546.43
-8546.95
-8547.45
-8547.93
-8548.38
-8548.81
-8549.22
-8549.59
-8549.92
-8550.23
-8550.49
-8550.72
-8550.91
-8551.05
-8551.15
-8551.21
-8551.23
-8551.2
-8551.12
-8551
-8550.84
-8550.64
-8550.4
-8550.12
-8549.81
-8549.46
-8549.08
-8548.67
-8548.24
-8547.79
-8547.31
-8546.82
-8546.31
-8545.8
-8545.27
-8544.74
-8544.21
-8543.68
-8543.14
-8542.62
-8542.1
-8541.58
-8541.07
-8540.57
-8540.08
-8539.59
-8539.11
-8538.62
-8538.13
-8537.64
-8537.12
-8536.57
-8535.98
-8535.33
-8534.58
-8533.71
-8532.65
-8531.35
-8529.7
-8527.54
-8524.66
-8520.69
-8515.07
-8506.82
-8494.16
-8473.67
-8438.05
-8370.27
-8225.4
-7870.47
-6865.79
-7019.48
-8225.87
-8691.55
-8895.89
-8996.73
-9051.72
-9084.21
-9104.7
-9118.31
-9127.75
-9134.53
-9139.58
-9143.46
-9146.51
-9148.99
-9151.07
-9152.84
-9154.4
-9155.8
-9157.09
-9158.28
-9159.42
-9160.5
-9161.55
-9162.57
-9163.56
-9164.53
-9165.47
-9166.4
-9167.29
-9168.16
-9168.99
-9169.79
-9170.56
-9171.27
-9171.95
-9172.57
-9173.13
-9173.64
-9174.09
-9174.47
-9174.78
-9175.02
-9175.19
-9175.29
-9175.31
-9175.26
-9175.14
-9174.94
-9174.68
-9174.34
-9173.94
-9173.47
-9172.94
-9172.36
-9171.73
-9171.05
-9170.32
-9169.56
-9168.76
-9167.94
-9167.09
-9166.23
-9165.35
-9164.47
-9163.58
-9162.68
-9161.8
-9160.92
-9160.04
-9159.18
-9158.33
-9157.49
-9156.67
-9155.85
-9155.04
-9154.23
-9153.42
-9152.59
-9151.73
-9150.82
-9149.84
-9148.75
-9147.51
-9146.06
-9144.32
-9142.17
-9139.45
-9135.91
-9131.2
-9124.74
-9115.63
-9102.35
-9082.18
-9050
-8995.34
-8894.81
-8690.78
-8225.4
-7019.33
-7075.5
-8370.91
-8895.89
-9137.47
-9261.58
-9331.37
-9373.57
-9400.62
-9418.8
-9431.53
-9440.75
-9447.65
-9452.96
-9457.17
-9460.6
-9463.47
-9465.94
-9468.11
-9470.06
-9471.86
-9473.54
-9475.13
-9476.65
-9478.13
-9479.56
-9480.95
-9482.31
-9483.64
-9484.94
-9486.2
-9487.42
-9488.59
-9489.72
-9490.8
-9491.81
-9492.75
-9493.63
-9494.43
-9495.14
-9495.77
-9496.31
-9496.75
-9497.09
-9497.33
-9497.46
-9497.5
-9497.43
-9497.25
-9496.98
-9496.6
-9496.13
-9495.56
-9494.91
-9494.17
-9493.35
-9492.45
-9491.49
-9490.47
-9489.4
-9488.28
-9487.12
-9485.93
-9484.71
-9483.48
-9482.23
-9480.97
-9479.72
-9478.47
-9477.23
-9476
-9474.79
-9473.59
-9472.41
-9471.25
-9470.1
-9468.96
-9467.83
-9466.69
-9465.52
-9464.31
-9463.04
-9461.67
-9460.15
-9458.43
-9456.43
-9454.02
-9451.06
-9447.32
-9442.48
-9436.05
-9427.3
-9415.03
-9397.31
-9370.71
-9328.96
-9259.61
-9135.94
-8894.8
-8370.26
-7075.28
-7100.15
-8438.89
-8996.73
-9261.58
-9401.73
-9482.57
-9532.46
-9564.95
-9587.07
-9602.7
-9614.12
-9622.71
-9629.37
-9634.67
-9639.01
-9642.66
-9645.8
-9648.58
-9651.08
-9653.39
-9655.55
-9657.6
-9659.57
-9661.47
-9663.31
-9665.12
-9666.88
-9668.6
-9670.28
-9671.91
-9673.49
-9675.01
-9676.48
-9677.87
-9679.18
-9680.41
-9681.54
-9682.57
-9683.5
-9684.31
-9685.01
-9685.58
-9686.02
-9686.34
-9686.51
-9686.56
-9686.47
-9686.24
-9685.89
-9685.4
-9684.79
-9684.05
-9683.2
-9682.25
-9681.18
-9680.03
-9678.78
-9677.46
-9676.07
-9674.62
-9673.12
-9671.57
-9670
-9668.39
-9666.78
-9665.15
-9663.53
-9661.91
-9660.3
-9658.71
-9657.14
-9655.59
-9654.06
-9652.56
-9651.07
-9649.6
-9648.14
-9646.66
-9645.16
-9643.61
-9641.97
-9640.22
-9638.28
-9636.09
-9633.54
-9630.5
-9626.77
-9622.07
-9616.02
-9608.03
-9597.22
-9582.19
-9560.66
-9528.75
-9479.45
-9399.18
-9259.6
-8995.33
-8438.05
-7099.87
-7112.72
-8474.69
-9051.72
-9331.37
-9482.57
-9571.53
-9627.39
-9664.3
-9689.73
-9707.88
-9721.25
-9731.38
-9739.28
-9745.61
-9750.82
-9755.21
-9759.01
-9762.38
-9765.43
-9768.24
-9770.89
-9773.4
-9775.81
-9778.15
-9780.42
-9782.64
-9784.81
-9786.93
-9789
-9791.01
-9792.96
-9794.84
-9796.64
-9798.36
-9799.98
-9801.49
-9802.89
-9804.17
-9805.31
-9806.32
-9807.18
-9807.88
-9808.43
-9808.82
-9809.04
-9809.1
-9808.99
-9808.71
-9808.27
-9807.67
-9806.92
-9806.01
-9804.96
-9803.78
-9802.47
-9801.04
-9799.51
-9797.88
-9796.16
-9794.37
-9792.52
-9790.61
-9788.67
-9786.69
-9784.7
-9782.69
-9780.69
-9778.69
-9776.7
-9774.74
-9772.8
-9770.89
-9769.01
-9767.16
-9765.33
-9763.52
-9761.72
-9759.91
-9758.07
-9756.17
-9754.18
-9752.04
-9749.69
-9747.04
-9743.97
-9740.33
-9735.87
-9730.29
-9723.14
-9713.75
-9701.13
-9683.71
-9659.01
-9622.82
-9567.68
-9479.43
-9328.94
-9049.98
-8473.65
-7112.38
-7119.86
-8495.38
-9084.21
-9373.57
-9532.46
-9627.39
-9687.85
-9728.3
-9756.48
-9776.78
-9791.86
-9803.38
-9812.42
-9819.7
-9825.72
-9830.83
-9835.27
-9839.22
-9842.81
-9846.14
-9849.26
-9852.24
-9855.11
-9857.89
-9860.59
-9863.24
-9865.83
-9868.35
-9870.82
-9873.23
-9875.56
-9877.8
-9879.96
-9882.01
-9883.95
-9885.76
-9887.43
-9888.96
-9890.33
-9891.53
-9892.56
-9893.4
-9894.06
-9894.52
-9894.79
-9894.86
-9894.73
-9894.4
-9893.87
-9893.16
-9892.26
-9891.18
-9889.93
-9888.51
-9886.95
-9885.25
-9883.41
-9881.47
-9879.41
-9877.28
-9875.06
-9872.78
-9870.46
-9868.09
-9865.71
-9863.31
-9860.92
-9858.53
-9856.16
-9853.81
-9851.5
-9849.22
-9846.97
-9844.76
-9842.58
-9840.43
-9838.28
-9836.13
-9833.94
-9831.7
-9829.35
-9826.83
-9824.08
-9820.99
-9817.43
-9813.21
-9808.08
-9801.69
-9793.55
-9782.92
-9768.73
-9749.3
-9721.99
-9682.4
-9622.8
-9528.71
-9370.67
-9082.14
-8494.14
-7119.45
-7124.25
-8508.23
-9104.7
-9400.62
-9564.95
-9664.3
-9728.3
-9771.59
-9802.04
-9824.17
-9840.74
-9853.49
-9863.57
-9871.74
-9878.53
-9884.32
-9889.38
-9893.9
-9898.03
-9901.86
-9905.47
-9908.92
-9912.25
-9915.48
-9918.63
-9921.71
-9924.73
-9927.68
-9930.56
-9933.37
-9936.09
-9938.71
-9941.23
-9943.63
-9945.89
-9948.01
-9949.97
-9951.75
-9953.36
-9954.76
-9955.97
-9956.96
-9957.72
-9958.27
-9958.58
-9958.66
-9958.51
-9958.13
-9957.52
-9956.69
-9955.64
-9954.37
-9952.91
-9951.26
-9949.44
-9947.45
-9945.31
-9943.03
-9940.63
-9938.13
-9935.55
-9932.88
-9930.17
-9927.41
-9924.62
-9921.82
-9919.02
-9916.23
-9913.46
-9910.72
-9908.01
-9905.35
-9902.73
-9900.15
-9897.61
-9895.1
-9892.61
-9890.11
-9887.57
-9884.98
-9882.27
-9879.38
-9876.23
-9872.72
-9868.68
-9863.92
-9858.17
-9851.05
-9842.02
-9830.31
-9814.77
-9793.66
-9764.23
-9721.95
-9658.94
-9560.58
-9397.23
-9102.29
-8506.78
-7123.77
-7127.11
-8516.67
-9118.31
-9418.8
-9587.07
-9689.73
-9756.48
-9802.04
-9834.35
-9858.04
-9875.91
-9889.76
-9900.77
-9909.76
-9917.28
-9923.73
-9929.39
-9934.47
-9939.13
-9943.47
-9947.57
-9951.51
-9955.3
-9958.99
-9962.6
-9966.13
-9969.59
-9972.98
-9976.28
-9979.51
-9982.63
-9985.65
-9988.54
-9991.3
-9993.9
-9996.34
-9998.59
-10000.6
-10002.5
-10004.1
-10005.5
-10006.6
-10007.5
-10008.1
-10008.5
-10008.6
-10008.4
-10008
-10007.3
-10006.3
-10005.1
-10003.7
-10002
-10000.1
-9998.02
-9995.73
-9993.27
-9990.66
-9987.91
-9985.03
-9982.06
-9979
-9975.87
-9972.7
-9969.5
-9966.28
-9963.06
-9959.85
-9956.67
-9953.52
-9950.42
-9947.36
-9944.35
-9941.39
-9938.48
-9935.6
-9932.75
-9929.9
-9927.01
-9924.06
-9920.99
-9917.74
-9914.2
-9910.27
-9905.78
-9900.52
-9894.2
-9886.41
-9876.6
-9863.94
-9847.26
-9824.75
-9793.59
-9749.19
-9683.58
-9582.06
-9414.92
-9115.54
-8515.01
-7126.56
-7129.08
-8522.49
-9127.75
-9431.53
-9602.7
-9707.88
-9776.78
-9824.17
-9858.04
-9883.05
-9902.05
-9916.87
-9928.75
-9938.49
-9946.7
-9953.78
-9960.02
-9965.66
-9970.85
-9975.7
-9980.3
-9984.72
-9989
-9993.16
-9997.24
-10001.2
-10005.1
-10009
-10012.7
-10016.4
-10019.9
-10023.4
-10026.6
-10029.8
-10032.7
-10035.5
-10038
-10040.4
-10042.5
-10044.3
-10045.9
-10047.2
-10048.2
-10048.9
-10049.3
-10049.4
-10049.3
-10048.8
-10048
-10046.9
-10045.5
-10043.9
-10042
-10039.8
-10037.5
-10034.9
-10032.1
-10029.1
-10026
-10022.7
-10019.3
-10015.9
-10012.3
-10008.7
-10005.1
-10001.4
-9997.78
-9994.14
-9990.53
-9986.95
-9983.43
-9979.96
-9976.56
-9973.21
-9969.91
-9966.66
-9963.43
-9960.22
-9956.98
-9953.67
-9950.24
-9946.62
-9942.71
-9938.37
-9933.45
-9927.72
-9920.87
-9912.48
-9901.97
-9888.49
-9870.84
-9847.16
-9814.61
-9768.53
-9700.92
-9597.02
-9427.13
-9124.61
-8520.61
-7128.46
-7130.48
-8526.65
-9134.53
-9440.75
-9614.12
-9721.25
-9791.86
-9840.74
-9875.91
-9902.05
-9922.04
-9937.74
-9950.4
-9960.85
-9969.71
-9977.4
-9984.22
-9990.4
-9996.11
-10001.5
-10006.6
-10011.5
-10016.3
-10020.9
-10025.5
-10029.9
-10034.3
-10038.6
-10042.8
-10046.9
-10050.9
-10054.8
-10058.5
-10062
-10065.3
-10068.4
-10071.3
-10073.9
-10076.3
-10078.3
-10080.1
-10081.6
-10082.7
-10083.5
-10084
-10084.1
-10083.9
-10083.4
-10082.5
-10081.3
-10079.7
-10077.9
-10075.8
-10073.4
-10070.7
-10067.8
-10064.6
-10061.3
-10057.8
-10054.1
-10050.3
-10046.4
-10042.5
-10038.4
-10034.3
-10030.2
-10026.1
-10022
-10018
-10014
-10010
-10006.1
-10002.3
-9998.53
-9994.83
-9991.19
-9987.59
-9984.01
-9980.4
-9976.73
-9972.94
-9968.95
-9964.66
-9959.94
-9954.61
-9948.44
-9941.1
-9932.16
-9921.03
-9906.84
-9888.36
-9863.71
-9830.03
-9782.61
-9713.45
-9607.76
-9435.81
-9131.02
-8524.55
-7129.78
-7131.52
-8529.73
-9139.58
-9447.65
-9622.71
-9731.38
-9803.38
-9853.49
-9889.76
-9916.87
-9937.74
-9954.24
-9967.61
-9978.74
-9988.22
-9996.49
-10003.9
-10010.6
-10016.8
-10022.7
-10028.3
-10033.8
-10039
-10044.2
-10049.2
-10054.2
-10059.1
-10063.9
-10068.6
-10073.1
-10077.6
-10081.8
-10086
-10089.9
-10093.6
-10097
-10100.3
-10103.2
-10105.8
-10108.1
-10110.1
-10111.7
-10113
-10113.9
-10114.5
-10114.6
-10114.4
-10113.8
-10112.8
-10111.4
-10109.7
-10107.7
-10105.3
-10102.6
-10099.7
-10096.4
-10092.9
-10089.2
-10085.3
-10081.2
-10077
-10072.6
-10068.2
-10063.7
-10059.1
-10054.6
-10050
-10045.4
-10040.9
-10036.4
-10032
-10027.7
-10023.5
-10019.3
-10015.2
-10011.1
-10007.1
-10003.2
-9999.19
-9995.15
-9991
-9986.64
-9981.99
-9976.89
-9971.16
-9964.56
-9956.77
-9947.34
-9935.66
-9920.85
-9901.66
-9876.2
-9841.58
-9793.1
-9722.71
-9615.64
-9442.16
-9135.67
-8527.39
-7130.74
-7132.31
-8532.09
-9143.46
-9452.96
-9629.37
-9739.28
-9812.42
-9863.57
-9900.77
-9928.75
-9950.4
-9967.61
-9981.66
-9993.41
-10003.5
-10012.3
-10020.3
-10027.5
-10034.3
-10040.7
-10046.9
-10052.8
-10058.6
-10064.3
-10069.8
-10075.3
-10080.7
-10086
-10091.2
-10096.2
-10101.1
-10105.8
-10110.4
-10114.7
-10118.8
-10122.7
-10126.2
-10129.5
-10132.4
-10135
-10137.2
-10139
-10140.4
-10141.4
-10142
-10142.2
-10141.9
-10141.3
-10140.2
-10138.7
-10136.8
-10134.6
-10131.9
-10129
-10125.7
-10122.1
-10118.2
-10114.1
-10109.8
-10105.3
-10100.6
-10095.8
-10090.9
-10085.9
-10080.8
-10075.8
-10070.7
-10065.7
-10060.7
-10055.7
-10050.8
-10046.1
-10041.3
-10036.7
-10032.2
-10027.7
-10023.4
-10019
-10014.6
-10010.2
-10005.7
-10001
-9995.95
-9990.48
-9984.37
-9977.38
-9969.16
-9959.28
-9947.1
-9931.75
-9911.94
-9885.81
-9850.42
-9801.07
-9729.71
-9621.56
-9446.9
-9139.14
-8529.51
-7131.45
-7132.93
-8533.95
-9146.51
-9457.17
-9634.67
-9745.61
-9819.7
-9871.74
-9909.76
-9938.49
-9960.85
-9978.74
-9993.41
-10005.8
-10016.4
-10025.8
-10034.3
-10042.1
-10049.4
-10056.4
-10063.1
-10069.5
-10075.9
-10082.1
-10088.2
-10094.2
-10100.1
-10105.9
-10111.6
-10117.1
-10122.5
-10127.7
-10132.7
-10137.5
-10142
-10146.3
-10150.2
-10153.8
-10157
-10159.8
-10162.2
-10164.2
-10165.8
-10166.9
-10167.6
-10167.8
-10167.5
-10166.8
-10165.6
-10164
-10161.9
-10159.4
-10156.5
-10153.3
-10149.6
-10145.7
-10141.4
-10136.9
-10132.2
-10127.2
-10122.1
-10116.8
-10111.4
-10105.9
-10100.3
-10094.7
-10089.2
-10083.6
-10078.1
-10072.7
-10067.3
-10062
-10056.9
-10051.8
-10046.8
-10042
-10037.1
-10032.4
-10027.6
-10022.8
-10017.9
-10012.9
-10007.5
-10001.6
-9995.14
-9987.77
-9979.16
-9968.85
-9956.23
-9940.39
-9920.06
-9893.34
-9857.3
-9807.24
-9735.11
-9626.11
-9450.52
-9141.78
-8531.11
-7131.99
-7133.44
-8535.45
-9148.99
-9460.6
-9639.01
-9750.82
-9825.72
-9878.53
-9917.28
-9946.7
-9969.71
-9988.22
-10003.5
-10016.4
-10027.6
-10037.6
-10046.6
-10055
-10062.9
-10070.3
-10077.6
-10084.6
-10091.4
-10098.2
-10104.8
-10111.4
-10117.8
-10124.2
-10130.4
-10136.5
-10142.4
-10148.1
-10153.6
-10158.8
-10163.8
-10168.4
-10172.7
-10176.6
-10180.1
-10183.3
-10185.9
-10188.1
-10189.8
-10191.1
-10191.8
-10192
-10191.7
-10190.9
-10189.6
-10187.9
-10185.6
-10182.9
-10179.7
-10176.2
-10172.2
-10167.9
-10163.3
-10158.3
-10153.1
-10147.7
-10142
-10136.2
-10130.3
-10124.3
-10118.2
-10112.1
-10106
-10099.9
-10093.9
-10088
-10082.1
-10076.3
-10070.7
-10065.1
-10059.7
-10054.4
-10049.2
-10044
-10038.8
-10033.6
-10028.4
-10022.9
-10017.1
-10010.9
-10004.1
-9996.36
-9987.37
-9976.68
-9963.64
-9947.37
-9926.57
-9899.35
-9862.77
-9812.12
-9739.35
-9629.66
-9453.34
-9143.82
-8532.35
-7132.41
-7133.85
-8536.7
-9151.07
-9463.47
-9642.66
-9755.21
-9830.83
-9884.32
-9923.73
-9953.78
-9977.4
-9996.49
-10012.3
-10025.8
-10037.6
-10048.1
-10057.7
-10066.6
-10075
-10083.1
-10090.8
-10098.4
-10105.8
-10113.1
-10120.4
-10127.5
-10134.5
-10141.4
-10148.1
-10154.8
-10161.2
-10167.4
-10173.4
-10179.1
-10184.5
-10189.6
-10194.3
-10198.5
-10202.4
-10205.8
-10208.7
-10211.1
-10213
-10214.3
-10215.1
-10215.4
-10215.1
-10214.2
-10212.8
-10210.9
-10208.4
-10205.5
-10202.1
-10198.2
-10193.9
-10189.2
-10184.1
-10178.7
-10173
-10167.1
-10161
-10154.7
-10148.2
-10141.7
-10135
-10128.4
-10121.7
-10115.1
-10108.5
-10102.1
-10095.7
-10089.4
-10083.2
-10077.2
-10071.3
-10065.5
-10059.9
-10054.2
-10048.7
-10043.1
-10037.4
-10031.6
-10025.5
-10018.9
-10011.7
-10003.6
-9994.26
-9983.2
-9969.78
-9953.11
-9931.9
-9904.24
-9867.2
-9816.05
-9742.75
-9632.5
-9455.59
-9145.45
-8533.33
-7132.73
-7134.21
-8537.77
-9152.84
-9465.94
-9645.8
-9759.01
-9835.27
-9889.38
-9929.39
-9960.02
-9984.22
-10003.9
-10020.3
-10034.3
-10046.6
-10057.7
-10067.8
-10077.3
-10086.3
-10094.9
-10103.2
-10111.4
-10119.4
-10127.3
-10135
-10142.7
-10150.3
-10157.8
-10165.1
-10172.3
-10179.3
-10186.1
-10192.6
-10198.8
-10204.6
-10210.1
-10215.2
-10219.9
-10224.1
-10227.8
-10230.9
-10233.5
-10235.6
-10237.1
-10238
-10238.2
-10237.9
-10237
-10235.5
-10233.4
-10230.7
-10227.5
-10223.8
-10219.6
-10214.9
-10209.8
-10204.3
-10198.5
-10192.3
-10185.9
-10179.3
-10172.4
-10165.4
-10158.3
-10151.1
-10143.9
-10136.7
-10129.5
-10122.3
-10115.3
-10108.4
-10101.6
-10094.9
-10088.4
-10082
-10075.7
-10069.6
-10063.5
-10057.5
-10051.5
-10045.5
-10039.3
-10032.8
-10025.8
-10018.3
-10009.8
-10000.2
-9988.74
-9974.97
-9957.94
-9936.35
-9908.3
-9870.85
-9819.28
-9745.52
-9634.81
-9457.41
-9146.76
-8534.13
-7133
-7134.53
-8538.71
-9154.4
-9468.11
-9648.58
-9762.38
-9839.22
-9893.9
-9934.47
-9965.66
-9990.4
-10010.6
-10027.5
-10042.1
-10055
-10066.6
-10077.3
-10087.3
-10096.8
-10106
-10114.9
-10123.7
-10132.3
-10140.8
-10149.2
-10157.5
-10165.7
-10173.7
-10181.7
-10189.4
-10197
-10204.3
-10211.3
-10218
-10224.3
-10230.3
-10235.8
-10240.9
-10245.4
-10249.4
-10252.8
-10255.7
-10257.9
-10259.5
-10260.5
-10260.8
-10260.5
-10259.5
-10257.8
-10255.6
-10252.7
-10249.3
-10245.3
-10240.7
-10235.7
-10230.2
-10224.2
-10217.9
-10211.3
-10204.3
-10197.1
-10189.7
-10182.1
-10174.4
-10166.6
-10158.8
-10151
-10143.3
-10135.5
-10127.9
-10120.4
-10113.1
-10105.9
-10098.8
-10091.9
-10085.2
-10078.6
-10072.1
-10065.6
-10059.2
-10052.8
-10046.2
-10039.3
-10032
-10024.1
-10015.3
-10005.3
-9993.55
-9979.44
-9962.07
-9940.14
-9911.74
-9873.93
-9821.98
-9747.84
-9636.72
-9458.91
-9147.85
-8534.78
-7133.22
-7134.81
-8539.55
-9155.8
-9470.06
-9651.08
-9765.43
-9842.81
-9898.03
-9939.13
-9970.85
-9996.11
-10016.8
-10034.3
-10049.4
-10062.9
-10075
-10086.3
-10096.8
-10106.9
-10116.7
-10126.2
-10135.6
-10144.8
-10153.9
-10162.9
-10171.8
-10180.6
-10189.3
-10197.8
-10206.2
-10214.3
-10222.2
-10229.8
-10237
-10243.8
-10250.3
-10256.2
-10261.7
-10266.6
-10270.9
-10274.6
-10277.7
-10280.1
-10281.8
-10282.9
-10283.2
-10282.9
-10281.8
-10280.1
-10277.7
-10274.6
-10270.9
-10266.6
-10261.7
-10256.2
-10250.3
-10243.9
-10237.1
-10229.9
-10222.5
-10214.7
-10206.7
-10198.5
-10190.2
-10181.9
-10173.5
-10165
-10156.7
-10148.4
-10140.2
-10132.1
-10124.2
-10116.4
-10108.8
-10101.4
-10094.1
-10087.1
-10080.1
-10073.2
-10066.4
-10059.5
-10052.5
-10045.3
-10037.6
-10029.4
-10020.2
-10009.9
-9997.8
-9983.37
-9965.68
-9943.43
-9914.71
-9876.57
-9824.29
-9749.81
-9638.35
-9460.19
-9148.76
-8535.33
-7133.4
-7135.06
-8540.32
-9157.09
-9471.86
-9653.39
-9768.24
-9846.14
-9901.86
-9943.47
-9975.7
-10001.5
-10022.7
-10040.7
-10056.4
-10070.3
-10083.1
-10094.9
-10106
-10116.7
-10127.1
-10137.2
-10147.1
-10157
-10166.7
-10176.3
-10185.9
-10195.3
-10204.7
-10213.8
-10222.8
-10231.5
-10240
-10248.1
-10255.9
-10263.3
-10270.2
-10276.6
-10282.4
-10287.7
-10292.4
-10296.4
-10299.7
-10302.3
-10304.2
-10305.3
-10305.7
-10305.3
-10304.2
-10302.3
-10299.8
-10296.5
-10292.5
-10287.9
-10282.6
-10276.8
-10270.4
-10263.6
-10256.2
-10248.5
-10240.5
-10232.2
-10223.6
-10214.8
-10205.9
-10196.9
-10187.9
-10178.8
-10169.8
-10160.9
-10152.1
-10143.4
-10134.9
-10126.6
-10118.4
-10110.5
-10102.7
-10095.2
-10087.7
-10080.4
-10073.1
-10065.8
-10058.4
-10050.8
-10042.8
-10034.2
-10024.7
-10014
-10001.6
-9986.89
-9968.89
-9946.34
-9917.32
-9878.88
-9826.31
-9751.53
-9639.76
-9461.28
-9149.55
-8535.81
-7133.56
-7135.3
-8541.04
-9158.28
-9473.54
-9655.55
-9770.89
-9849.26
-9905.47
-9947.57
-9980.3
-10006.6
-10028.3
-10046.9
-10063.1
-10077.6
-10090.8
-10103.2
-10114.9
-10126.2
-10137.2
-10147.9
-10158.5
-10169
-10179.4
-10189.6
-10199.8
-10209.9
-10219.9
-10229.7
-10239.3
-10248.6
-10257.7
-10266.4
-10274.8
-10282.7
-10290.1
-10296.9
-10303.2
-10308.9
-10313.9
-10318.2
-10321.7
-10324.5
-10326.6
-10327.8
-10328.2
-10327.8
-10326.7
-10324.7
-10321.9
-10318.4
-10314.2
-10309.2
-10303.6
-10297.4
-10290.5
-10283.2
-10275.4
-10267.1
-10258.5
-10249.6
-10240.4
-10231
-10221.5
-10211.9
-10202.2
-10192.5
-10182.8
-10173.3
-10163.9
-10154.6
-10145.5
-10136.6
-10127.9
-10119.4
-10111.1
-10103
-10095
-10087.2
-10079.5
-10071.8
-10064
-10056
-10047.6
-10038.7
-10028.8
-10017.8
-10005.1
-9990.1
-9971.81
-9948.97
-9919.67
-9880.95
-9828.1
-9753.04
-9641
-9462.25
-9150.24
-8536.22
-7133.7
-7135.53
-8541.72
-9159.42
-9475.13
-9657.6
-9773.4
-9852.24
-9908.92
-9951.51
-9984.72
-10011.5
-10033.8
-10052.8
-10069.5
-10084.6
-10098.4
-10111.4
-10123.7
-10135.6
-10147.1
-10158.5
-10169.7
-10180.8
-10191.9
-10202.8
-10213.7
-10224.5
-10235.1
-10245.5
-10255.8
-10265.7
-10275.4
-10284.7
-10293.6
-10302.1
-10310
-10317.3
-10324.1
-10330.1
-10335.5
-10340.1
-10343.9
-10346.9
-10349.1
-10350.4
-10350.9
-10350.5
-10349.2
-10347.1
-10344.2
-10340.4
-10335.9
-10330.6
-10324.7
-10318
-10310.8
-10302.9
-10294.6
-10285.8
-10276.6
-10267.1
-10257.3
-10247.2
-10237
-10226.8
-10216.4
-10206.1
-10195.8
-10185.6
-10175.5
-10165.6
-10155.9
-10146.4
-10137.1
-10128
-10119.2
-10110.6
-10102.2
-10093.9
-10085.7
-10077.6
-10069.4
-10061
-10052.2
-10042.9
-10032.7
-10021.4
-10008.4
-9993.07
-9974.5
-9951.39
-9921.81
-9882.83
-9829.72
-9754.41
-9642.12
-9463.12
-9150.86
-8536.59
-7133.82
-7135.75
-8542.37
-9160.5
-9476.65
-9659.57
-9775.81
-9855.11
-9912.25
-9955.3
-9989
-10016.3
-10039
-10058.6
-10075.9
-10091.4
-10105.8
-10119.4
-10132.3
-10144.8
-10157
-10169
-10180.8
-10192.6
-10204.3
-10215.9
-10227.5
-10238.9
-10250.2
-10261.3
-10272.2
-10282.9
-10293.2
-10303.1
-10312.6
-10321.5
-10330
-10337.8
-10345
-10351.4
-10357.2
-10362.1
-10366.1
-10369.4
-10371.7
-10373.1
-10373.6
-10373.2
-10371.9
-10369.7
-10366.6
-10362.6
-10357.8
-10352.2
-10345.8
-10338.8
-10331.1
-10322.7
-10313.8
-10304.5
-10294.7
-10284.6
-10274.1
-10263.5
-10252.6
-10241.7
-10230.6
-10219.6
-10208.7
-10197.8
-10187.1
-10176.6
-10166.2
-10156.1
-10146.2
-10136.6
-10127.2
-10118.1
-10109.1
-10100.4
-10091.7
-10083.2
-10074.5
-10065.7
-10056.6
-10046.9
-10036.5
-10024.8
-10011.5
-9995.86
-9977.01
-9953.63
-9923.8
-9884.57
-9831.22
-9755.67
-9643.14
-9463.91
-9151.42
-8536.93
-7133.94
-7135.96
-8543
-9161.55
-9478.13
-9661.47
-9778.15
-9857.89
-9915.48
-9958.99
-9993.16
-10020.9
-10044.2
-10064.3
-10082.1
-10098.2
-10113.1
-10127.3
-10140.8
-10153.9
-10166.7
-10179.4
-10191.9
-10204.3
-10216.7
-10229
-10241.2
-10253.3
-10265.3
-10277.1
-10288.7
-10300
-10310.9
-10321.4
-10331.5
-10341.1
-10350
-10358.3
-10366
-10372.8
-10378.9
-10384.2
-10388.5
-10391.9
-10394.4
-10396
-10396.5
-10396.1
-10394.7
-10392.4
-10389.1
-10384.9
-10379.8
-10373.9
-10367.1
-10359.6
-10351.4
-10342.6
-10333.2
-10323.3
-10312.9
-10302.1
-10291
-10279.7
-10268.2
-10256.6
-10244.9
-10233.2
-10221.6
-10210
-10198.6
-10187.4
-10176.5
-10165.7
-10155.3
-10145.1
-10135.1
-10125.4
-10116
-10106.7
-10097.6
-10088.6
-10079.6
-10070.4
-10060.9
-10050.8
-10040
-10028
-10014.4
-9998.52
-9979.39
-9955.75
-9925.67
-9886.2
-9832.62
-9756.84
-9644.09
-9464.65
-9151.95
-8537.25
-7134.04
-7136.16
-8543.61
-9162.57
-9479.56
-9663.31
-9780.42
-9860.59
-9918.63
-9962.6
-9997.24
-10025.5
-10049.2
-10069.8
-10088.2
-10104.8
-10120.4
-10135
-10149.2
-10162.9
-10176.3
-10189.6
-10202.8
-10215.9
-10229
-10242
-10254.9
-10267.7
-10280.4
-10292.9
-10305.1
-10317
-10328.6
-10339.8
-10350.5
-10360.6
-10370.1
-10378.9
-10387
-10394.3
-10400.7
-10406.3
-10410.9
-10414.6
-10417.2
-10418.9
-10419.5
-10419.1
-10417.6
-10415.1
-10411.7
-10407.2
-10401.9
-10395.6
-10388.5
-10380.5
-10371.9
-10362.5
-10352.6
-10342.1
-10331.1
-10319.7
-10307.9
-10296
-10283.8
-10271.5
-10259.1
-10246.7
-10234.4
-10222.2
-10210.1
-10198.3
-10186.7
-10175.3
-10164.2
-10153.4
-10142.9
-10132.7
-10122.8
-10113
-10103.4
-10094
-10084.5
-10074.9
-10065
-10054.6
-10043.5
-10031.2
-10017.3
-10001.1
-9981.67
-9957.77
-9927.45
-9887.75
-9833.94
-9757.95
-9644.99
-9465.34
-9152.44
-8537.54
-7134.14
-7136.36
-8544.2
-9163.56
-9480.95
-9665.12
-9782.64
-9863.24
-9921.71
-9966.13
-10001.2
-10029.9
-10054.2
-10075.3
-10094.2
-10111.4
-10127.5
-10142.7
-10157.5
-10171.8
-10185.9
-10199.8
-10213.7
-10227.5
-10241.2
-10254.9
-10268.5
-10282
-10295.4
-10308.6
-10321.5
-10334.1
-10346.3
-10358.1
-10369.4
-10380.1
-10390.1
-10399.5
-10408
-10415.7
-10422.5
-10428.4
-10433.3
-10437.2
-10440
-10441.8
-10442.4
-10442
-10440.5
-10437.9
-10434.3
-10429.6
-10423.9
-10417.3
-10409.8
-10401.5
-10392.3
-10382.5
-10372
-10360.9
-10349.3
-10337.2
-10324.9
-10312.2
-10299.3
-10286.3
-10273.3
-10260.2
-10247.2
-10234.3
-10221.6
-10209.1
-10196.8
-10184.8
-10173.1
-10161.8
-10150.7
-10139.9
-10129.4
-10119.2
-10109.1
-10099.2
-10089.3
-10079.3
-10069.1
-10058.3
-10046.8
-10034.2
-10020
-10003.5
-9983.86
-9959.71
-9929.15
-9889.22
-9835.2
-9759
-9645.84
-9466
-9152.9
-8537.82
-7134.23
-7136.55
-8544.78
-9164.53
-9482.31
-9666.88
-9784.81
-9865.83
-9924.73
-9969.59
-10005.1
-10034.3
-10059.1
-10080.7
-10100.1
-10117.8
-10134.5
-10150.3
-10165.7
-10180.6
-10195.3
-10209.9
-10224.5
-10238.9
-10253.3
-10267.7
-10282
-10296.2
-10310.3
-10324.2
-10337.8
-10351
-10363.9
-10376.3
-10388.2
-10399.5
-10410.1
-10419.9
-10428.9
-10437.1
-10444.3
-10450.5
-10455.7
-10459.8
-10462.8
-10464.6
-10465.3
-10464.9
-10463.3
-10460.6
-10456.8
-10451.9
-10446
-10439
-10431.1
-10422.3
-10412.7
-10402.4
-10391.3
-10379.6
-10367.4
-10354.8
-10341.7
-10328.4
-10314.9
-10301.2
-10287.4
-10273.6
-10260
-10246.4
-10233
-10219.8
-10206.9
-10194.3
-10182
-10170
-10158.4
-10147
-10136
-10125.3
-10114.8
-10104.4
-10094.1
-10083.7
-10073
-10061.9
-10050.1
-10037.2
-10022.7
-10005.9
-9985.98
-9961.59
-9930.79
-9890.64
-9836.4
-9760.01
-9646.65
-9466.62
-9153.35
-8538.08
-7134.32
-7136.74
-8545.35
-9165.47
-9483.64
-9668.6
-9786.93
-9868.35
-9927.68
-9972.98
-10009
-10038.6
-10063.9
-10086
-10105.9
-10124.2
-10141.4
-10157.8
-10173.7
-10189.3
-10204.7
-10219.9
-10235.1
-10250.2
-10265.3
-10280.4
-10295.4
-10310.3
-10325
-10339.6
-10353.9
-10367.8
-10381.4
-10394.4
-10406.9
-10418.7
-10429.9
-10440.2
-10449.7
-10458.3
-10465.9
-10472.4
-10477.9
-10482.2
-10485.3
-10487.3
-10488.1
-10487.7
-10486
-10483.2
-10479.2
-10474.1
-10467.9
-10460.6
-10452.3
-10443.1
-10433
-10422.1
-10410.5
-10398.3
-10385.5
-10372.2
-10358.5
-10344.5
-10330.3
-10315.9
-10301.4
-10287
-10272.6
-10258.3
-10244.3
-10230.4
-10216.9
-10203.6
-10190.7
-10178.1
-10165.9
-10154.1
-10142.5
-10131.3
-10120.3
-10109.5
-10098.7
-10087.9
-10076.9
-10065.4
-10053.3
-10040
-10025.2
-10008.2
-9988.04
-9963.4
-9932.38
-9892.01
-9837.57
-9760.98
-9647.44
-9467.23
-9153.78
-8538.34
-7134.4
-7136.92
-8545.9
-9166.4
-9484.94
-9670.28
-9789
-9870.82
-9930.56
-9976.28
-10012.7
-10042.8
-10068.6
-10091.2
-10111.6
-10130.4
-10148.1
-10165.1
-10181.7
-10197.8
-10213.8
-10229.7
-10245.5
-10261.3
-10277.1
-10292.9
-10308.6
-10324.2
-10339.6
-10354.8
-10369.8
-10384.4
-10398.6
-10412.3
-10425.3
-10437.8
-10449.4
-10460.3
-10470.3
-10479.2
-10487.2
-10494.1
-10499.8
-10504.4
-10507.7
-10509.8
-10510.6
-10510.2
-10508.5
-10505.6
-10501.4
-10496
-10489.5
-10481.9
-10473.3
-10463.6
-10453.1
-10441.7
-10429.5
-10416.7
-10403.3
-10389.4
-10375.1
-10360.4
-10345.5
-10330.4
-10315.3
-10300.2
-10285.1
-10270.2
-10255.4
-10240.9
-10226.7
-10212.9
-10199.3
-10186.2
-10173.4
-10161
-10149
-10137.2
-10125.8
-10114.5
-10103.3
-10092.1
-10080.7
-10068.9
-10056.4
-10042.9
-10027.8
-10010.5
-9990.04
-9965.17
-9933.92
-9893.34
-9838.7
-9761.92
-9648.2
-9467.81
-9154.19
-8538.58
-7134.48
-7137.1
-8546.43
-9167.29
-9486.2
-9671.91
-9791.01
-9873.23
-9933.37
-9979.51
-10016.4
-10046.9
-10073.1
-10096.2
-10117.1
-10136.5
-10154.8
-10172.3
-10189.4
-10206.2
-10222.8
-10239.3
-10255.8
-10272.2
-10288.7
-10305.1
-10321.5
-10337.8
-10353.9
-10369.8
-10385.4
-10400.7
-10415.5
-10429.8
-10443.5
-10456.5
-10468.7
-10480
-10490.5
-10499.9
-10508.2
-10515.4
-10521.4
-10526.2
-10529.7
-10531.9
-10532.8
-10532.4
-10530.6
-10527.6
-10523.2
-10517.7
-10510.9
-10503
-10493.9
-10483.9
-10472.9
-10461
-10448.3
-10434.9
-10420.9
-10406.4
-10391.4
-10376.1
-10360.5
-10344.8
-10329
-10313.2
-10297.4
-10281.8
-10266.4
-10251.3
-10236.4
-10221.9
-10207.8
-10194.1
-10180.8
-10167.8
-10155.2
-10143
-10131.1
-10119.4
-10107.8
-10096.2
-10084.4
-10072.3
-10059.5
-10045.6
-10030.2
-10012.7
-9991.99
-9966.88
-9935.41
-9894.63
-9839.79
-9762.83
-9648.93
-9468.37
-9154.59
-8538.82
-7134.56
-7137.27
-8546.95
-9168.16
-9487.42
-9673.49
-9792.96
-9875.56
-9936.09
-9982.63
-10019.9
-10050.9
-10077.6
-10101.1
-10122.5
-10142.4
-10161.2
-10179.3
-10197
-10214.3
-10231.5
-10248.6
-10265.7
-10282.9
-10300
-10317
-10334.1
-10351
-10367.8
-10384.4
-10400.7
-10416.6
-10432
-10446.9
-10461.2
-10474.8
-10487.5
-10499.3
-10510.2
-10520
-10528.7
-10536.3
-10542.6
-10547.5
-10551.2
-10553.5
-10554.5
-10554.1
-10552.3
-10549.1
-10544.6
-10538.9
-10531.8
-10523.6
-10514.2
-10503.7
-10492.2
-10479.9
-10466.7
-10452.7
-10438.1
-10423
-10407.4
-10391.5
-10375.2
-10358.9
-10342.4
-10325.9
-10309.5
-10293.2
-10277.2
-10261.4
-10245.9
-10230.8
-10216.1
-10201.8
-10187.9
-10174.5
-10161.4
-10148.7
-10136.3
-10124.2
-10112.2
-10100.2
-10088.1
-10075.6
-10062.4
-10048.3
-10032.6
-10014.8
-9993.88
-9968.54
-9936.86
-9895.88
-9840.85
-9763.7
-9649.63
-9468.91
-9154.97
-8539.05
-7134.64
-7137.44
-8547.45
-9168.99
-9488.59
-9675.01
-9794.84
-9877.8
-9938.71
-9985.65
-10023.4
-10054.8
-10081.8
-10105.8
-10127.7
-10148.1
-10167.4
-10186.1
-10204.3
-10222.2
-10240
-10257.7
-10275.4
-10293.2
-10310.9
-10328.6
-10346.3
-10363.9
-10381.4
-10398.6
-10415.5
-10432
-10448.1
-10463.6
-10478.4
-10492.5
-10505.8
-10518.1
-10529.4
-10539.7
-10548.7
-10556.6
-10563.1
-10568.3
-10572.2
-10574.6
-10575.6
-10575.2
-10573.4
-10570.1
-10565.5
-10559.5
-10552.2
-10543.6
-10533.9
-10523
-10511.1
-10498.3
-10484.6
-10470.1
-10454.9
-10439.2
-10423
-10406.4
-10389.6
-10372.6
-10355.4
-10338.3
-10321.2
-10304.3
-10287.7
-10271.3
-10255.2
-10239.5
-10224.2
-10209.3
-10194.9
-10180.9
-10167.4
-10154.2
-10141.4
-10128.8
-10116.4
-10104.1
-10091.6
-10078.8
-10065.3
-10050.9
-10034.9
-10016.9
-9995.7
-9970.15
-9938.26
-9897.08
-9841.87
-9764.55
-9650.32
-9469.44
-9155.34
-8539.27
-7134.71
-7137.6
-8547.93
-9169.79
-9489.72
-9676.48
-9796.64
-9879.96
-9941.23
-9988.54
-10026.6
-10058.5
-10086
-10110.4
-10132.7
-10153.6
-10173.4
-10192.6
-10211.3
-10229.8
-10248.1
-10266.4
-10284.7
-10303.1
-10321.4
-10339.8
-10358.1
-10376.3
-10394.4
-10412.3
-10429.8
-10446.9
-10463.6
-10479.7
-10495.1
-10509.7
-10523.4
-10536.2
-10548
-10558.6
-10568
-10576.2
-10583
-10588.4
-10592.4
-10595
-10596.1
-10595.7
-10593.8
-10590.4
-10585.6
-10579.4
-10571.9
-10563.1
-10553
-10541.7
-10529.4
-10516.1
-10501.9
-10486.9
-10471.2
-10454.9
-10438.1
-10420.9
-10403.5
-10385.8
-10368.1
-10350.3
-10332.6
-10315.1
-10297.8
-10280.8
-10264.1
-10247.9
-10232
-10216.6
-10201.7
-10187.2
-10173.2
-10159.6
-10146.3
-10133.3
-10120.5
-10107.8
-10095
-10081.8
-10068.1
-10053.4
-10037.2
-10018.9
-9997.46
-9971.69
-9939.6
-9898.24
-9842.85
-9765.37
-9650.97
-9469.94
-9155.69
-8539.48
-7134.78
-7137.75
-8548.38
-9170.56
-9490.8
-9677.87
-9798.36
-9882.01
-9943.63
-9991.3
-10029.8
-10062
-10089.9
-10114.7