/*--------------------------------*- C++ -*----------------------------------*\
  =========                 |
  \\      /  F ield         | OpenFOAM: The Open Source CFD Toolbox
   \\    /   O peration     | Website:  https://openfoam.org
    \\  /    A nd           | Version:  9
     \\/     M anipulation  |
\*---------------------------------------------------------------------------*/
FoamFile
{
    format      ascii;
    class       volScalarField;
    location    "0.2";
    object      T;
}
// * * * * * * * * * * * * * * * * * * * * * * * * * * * * * * * * * * * * * //

dimensions      [0 0 0 1 0 0 0];

internalField   nonuniform List<scalar> 
200000
(
300.354
300.649
300.812
300.923
301.005
301.072
301.128
301.176
301.22
301.26
301.296
301.331
301.364
301.396
301.427
301.458
301.488
301.517
301.547
301.576
301.605
301.634
301.663
301.692
301.72
301.748
301.776
301.803
301.83
301.856
301.881
301.906
301.929
301.95
301.971
301.99
302.008
302.023
302.037
302.05
302.06
302.068
302.074
302.078
302.08
302.079
302.077
302.072
302.065
302.056
302.045
302.033
302.018
302.002
301.984
301.964
301.943
301.921
301.898
301.874
301.849
301.823
301.797
301.771
301.744
301.717
301.69
301.663
301.636
301.61
301.584
301.559
301.534
301.509
301.486
301.463
301.44
301.418
301.397
301.377
301.357
301.337
301.318
301.298
301.279
301.26
301.24
301.219
301.198
301.175
301.15
301.122
301.09
301.053
301.008
300.953
300.882
300.784
300.632
300.349
300.649
301.354
301.799
302.115
302.357
302.554
302.72
302.866
302.996
303.114
303.224
303.328
303.428
303.523
303.616
303.708
303.798
303.887
303.975
304.063
304.151
304.238
304.325
304.411
304.497
304.581
304.665
304.747
304.827
304.905
304.98
305.053
305.123
305.188
305.25
305.307
305.36
305.407
305.45
305.486
305.517
305.541
305.559
305.571
305.576
305.575
305.568
305.554
305.533
305.506
305.474
305.435
305.392
305.342
305.288
305.23
305.167
305.101
305.031
304.959
304.884
304.807
304.728
304.648
304.567
304.486
304.405
304.325
304.245
304.166
304.088
304.011
303.936
303.863
303.792
303.723
303.656
303.59
303.527
303.465
303.404
303.345
303.287
303.229
303.172
303.114
303.054
302.993
302.928
302.859
302.784
302.7
302.605
302.495
302.364
302.202
301.994
301.713
301.302
300.632
300.812
301.799
302.47
302.965
303.354
303.673
303.946
304.186
304.4
304.597
304.78
304.953
305.118
305.277
305.432
305.585
305.735
305.883
306.031
306.178
306.324
306.47
306.615
306.759
306.902
307.044
307.183
307.32
307.454
307.585
307.711
307.833
307.949
308.059
308.162
308.258
308.345
308.425
308.495
308.556
308.607
308.648
308.679
308.699
308.708
308.706
308.693
308.669
308.635
308.591
308.536
308.472
308.399
308.317
308.226
308.129
308.024
307.913
307.796
307.675
307.55
307.421
307.289
307.156
307.021
306.886
306.75
306.615
306.482
306.349
306.219
306.091
305.966
305.844
305.725
305.609
305.497
305.388
305.281
305.178
305.077
304.979
304.881
304.785
304.689
304.593
304.494
304.392
304.284
304.17
304.045
303.907
303.751
303.57
303.355
303.094
302.763
302.326
301.713
300.784
300.923
302.115
302.965
303.613
304.133
304.568
304.941
305.271
305.568
305.841
306.096
306.337
306.568
306.791
307.008
307.222
307.432
307.641
307.848
308.054
308.259
308.464
308.668
308.871
309.072
309.271
309.467
309.659
309.848
310.031
310.209
310.38
310.543
310.698
310.843
310.978
311.101
311.213
311.312
311.398
311.47
311.528
311.571
311.598
311.611
311.608
311.591
311.557
311.51
311.447
311.37
311.28
311.177
311.062
310.935
310.797
310.65
310.494
310.33
310.16
309.983
309.802
309.617
309.43
309.24
309.05
308.859
308.669
308.481
308.295
308.112
307.933
307.757
307.585
307.418
307.255
307.097
306.943
306.794
306.649
306.507
306.369
306.233
306.098
305.964
305.828
305.69
305.548
305.398
305.239
305.066
304.875
304.66
304.412
304.121
303.768
303.329
302.762
301.994
300.882
301.005
302.357
303.354
304.133
304.771
305.31
305.778
306.194
306.571
306.919
307.245
307.553
307.849
308.136
308.415
308.69
308.961
309.23
309.497
309.764
310.029
310.293
310.557
310.818
311.078
311.335
311.589
311.838
312.082
312.319
312.549
312.77
312.981
313.181
313.369
313.543
313.703
313.848
313.976
314.087
314.18
314.255
314.311
314.347
314.363
314.36
314.337
314.294
314.232
314.152
314.053
313.936
313.803
313.653
313.489
313.312
313.121
312.92
312.708
312.487
312.259
312.025
311.786
311.543
311.298
311.051
310.805
310.56
310.317
310.076
309.839
309.607
309.38
309.158
308.941
308.731
308.527
308.328
308.135
307.948
307.765
307.587
307.411
307.237
307.065
306.891
306.714
306.531
306.34
306.137
305.918
305.676
305.405
305.095
304.733
304.299
303.767
303.092
302.2
300.953
301.072
302.554
303.673
304.568
305.31
305.945
306.502
307
307.454
307.875
308.27
308.645
309.006
309.356
309.698
310.034
310.367
310.696
311.025
311.351
311.677
312.002
312.326
312.648
312.968
313.284
313.596
313.903
314.203
314.495
314.778
315.05
315.31
315.556
315.787
316.002
316.199
316.377
316.535
316.672
316.787
316.879
316.948
316.992
317.013
317.009
316.981
316.928
316.852
316.753
316.631
316.488
316.324
316.14
315.938
315.719
315.485
315.237
314.976
314.705
314.424
314.136
313.841
313.542
313.241
312.937
312.634
312.332
312.033
311.737
311.445
311.159
310.88
310.606
310.34
310.081
309.83
309.586
309.349
309.118
308.894
308.675
308.46
308.247
308.036
307.823
307.607
307.385
307.154
306.908
306.644
306.354
306.03
305.662
305.235
304.73
304.117
303.352
302.361
301.007
301.128
302.72
303.946
304.941
305.778
306.502
307.142
307.718
308.247
308.738
309.201
309.643
310.068
310.481
310.886
311.284
311.678
312.07
312.46
312.848
313.236
313.622
314.008
314.391
314.772
315.148
315.52
315.885
316.243
316.591
316.928
317.252
317.562
317.856
318.132
318.388
318.623
318.836
319.024
319.188
319.325
319.435
319.516
319.57
319.594
319.59
319.557
319.494
319.404
319.286
319.141
318.97
318.775
318.556
318.315
318.055
317.776
317.48
317.169
316.846
316.511
316.167
315.816
315.46
315.101
314.739
314.378
314.018
313.661
313.308
312.961
312.62
312.287
311.961
311.644
311.336
311.036
310.746
310.464
310.19
309.923
309.663
309.408
309.156
308.905
308.654
308.4
308.139
307.867
307.58
307.273
306.937
306.564
306.142
305.657
305.088
304.405
303.563
302.491
301.051
301.176
302.866
304.186
305.271
306.194
307
307.718
308.37
308.97
309.53
310.06
310.567
311.057
311.533
312.001
312.462
312.919
313.373
313.825
314.276
314.727
315.176
315.624
316.07
316.513
316.952
317.385
317.81
318.227
318.632
319.025
319.403
319.764
320.106
320.427
320.726
321
321.248
321.468
321.659
321.819
321.947
322.043
322.105
322.134
322.129
322.091
322.018
321.913
321.776
321.607
321.408
321.181
320.926
320.646
320.343
320.018
319.673
319.311
318.935
318.545
318.144
317.736
317.321
316.902
316.481
316.06
315.64
315.225
314.814
314.409
314.012
313.624
313.245
312.875
312.516
312.168
311.83
311.502
311.184
310.874
310.572
310.276
309.984
309.695
309.406
309.113
308.813
308.502
308.175
307.826
307.446
307.027
306.556
306.018
305.391
304.647
303.74
302.599
301.087
301.22
302.996
304.4
305.568
306.571
307.454
308.247
308.97
309.639
310.267
310.863
311.435
311.989
312.529
313.06
313.584
314.104
314.622
315.138
315.653
316.168
316.681
317.194
317.704
318.211
318.713
319.208
319.695
320.172
320.637
321.087
321.52
321.933
322.326
322.694
323.037
323.351
323.635
323.887
324.106
324.29
324.437
324.547
324.619
324.653
324.648
324.604
324.521
324.401
324.244
324.051
323.824
323.563
323.272
322.951
322.604
322.232
321.837
321.423
320.991
320.545
320.086
319.618
319.143
318.663
318.18
317.698
317.218
316.741
316.271
315.807
315.353
314.908
314.474
314.051
313.64
313.242
312.855
312.48
312.116
311.763
311.418
311.081
310.749
310.42
310.092
309.761
309.423
309.074
308.708
308.318
307.897
307.434
306.917
306.331
305.653
304.855
303.891
302.69
301.118
301.26
303.114
304.597
305.841
306.919
307.875
308.738
309.53
310.267
310.961
311.623
312.259
312.877
313.481
314.076
314.664
315.249
315.831
316.412
316.992
317.573
318.152
318.731
319.307
319.879
320.446
321.006
321.557
322.096
322.621
323.13
323.619
324.087
324.531
324.948
325.335
325.691
326.013
326.299
326.547
326.755
326.922
327.047
327.129
327.167
327.161
327.112
327.019
326.884
326.707
326.489
326.232
325.938
325.609
325.247
324.854
324.433
323.987
323.519
323.031
322.526
322.008
321.478
320.941
320.398
319.853
319.308
318.764
318.226
317.694
317.17
316.656
316.153
315.662
315.185
314.72
314.27
313.834
313.411
313
312.602
312.214
311.835
311.462
311.094
310.727
310.358
309.982
309.595
309.191
308.762
308.301
307.797
307.238
306.607
305.883
305.036
304.022
302.77
301.145
301.296
303.224
304.78
306.096
307.245
308.27
309.201
310.06
310.863
311.623
312.349
313.05
313.732
314.401
315.06
315.713
316.363
317.011
317.658
318.306
318.953
319.6
320.246
320.89
321.529
322.163
322.79
323.406
324.009
324.596
325.166
325.714
326.238
326.735
327.202
327.636
328.035
328.395
328.715
328.993
329.227
329.414
329.555
329.647
329.69
329.685
329.63
329.527
329.376
329.178
328.934
328.647
328.319
327.951
327.546
327.106
326.636
326.137
325.613
325.067
324.502
323.922
323.33
322.728
322.121
321.511
320.9
320.292
319.69
319.094
318.508
317.933
317.37
316.821
316.287
315.768
315.265
314.777
314.305
313.847
313.402
312.97
312.548
312.135
311.726
311.32
310.913
310.5
310.075
309.633
309.167
308.668
308.126
307.526
306.855
306.088
305.197
304.138
302.84
301.168
301.331
303.328
304.953
306.337
307.553
308.645
309.643
310.567
311.435
312.259
313.05
313.815
314.562
315.295
316.02
316.739
317.456
318.171
318.886
319.602
320.318
321.034
321.75
322.463
323.172
323.875
324.569
325.252
325.922
326.574
327.206
327.814
328.396
328.948
329.466
329.949
330.392
330.792
331.148
331.457
331.717
331.926
332.082
332.185
332.234
332.229
332.169
332.055
331.887
331.668
331.399
331.081
330.717
330.309
329.859
329.372
328.85
328.297
327.715
327.11
326.483
325.839
325.182
324.514
323.84
323.163
322.486
321.811
321.142
320.482
319.831
319.193
318.569
317.96
317.367
316.792
316.234
315.694
315.171
314.664
314.173
313.695
313.23
312.774
312.325
311.88
311.434
310.983
310.522
310.043
309.541
309.005
308.425
307.789
307.079
306.273
305.342
304.243
302.903
301.189
301.364
303.428
305.118
306.568
307.849
309.006
310.068
311.057
311.989
312.877
313.732
314.562
315.374
316.173
316.964
317.75
318.534
319.318
320.102
320.888
321.675
322.462
323.249
324.034
324.814
325.588
326.353
327.105
327.843
328.561
329.258
329.929
330.57
331.178
331.75
332.282
332.771
333.213
333.606
333.947
334.234
334.465
334.639
334.753
334.808
334.802
334.737
334.612
334.428
334.188
333.891
333.541
333.14
332.691
332.197
331.66
331.085
330.476
329.835
329.168
328.477
327.768
327.044
326.308
325.565
324.819
324.073
323.329
322.592
321.864
321.147
320.444
319.756
319.085
318.433
317.799
317.185
316.591
316.016
315.459
314.92
314.396
313.886
313.388
312.898
312.413
311.929
311.44
310.942
310.427
309.889
309.318
308.703
308.03
307.284
306.442
305.474
304.337
302.96
301.208
301.396
303.523
305.277
306.791
308.136
309.356
310.481
311.533
312.529
313.481
314.401
315.295
316.173
317.039
317.897
318.751
319.604
320.458
321.313
322.171
323.03
323.89
324.75
325.608
326.462
327.309
328.146
328.97
329.778
330.565
331.328
332.063
332.766
333.433
334.06
334.644
335.18
335.665
336.096
336.471
336.786
337.04
337.231
337.357
337.417
337.412
337.342
337.206
337.005
336.742
336.418
336.036
335.597
335.106
334.564
333.977
333.348
332.68
331.979
331.248
330.492
329.715
328.921
328.116
327.302
326.485
325.667
324.853
324.045
323.247
322.462
321.692
320.939
320.205
319.49
318.797
318.125
317.475
316.846
316.238
315.649
315.078
314.523
313.982
313.45
312.925
312.401
311.875
311.341
310.791
310.217
309.611
308.962
308.255
307.475
306.598
305.596
304.425
303.012
301.226
301.427
303.616
305.432
307.008
308.415
309.698
310.886
312.001
313.06
314.076
315.06
316.02
316.964
317.897
318.823
319.747
320.671
321.596
322.524
323.455
324.388
325.323
326.258
327.192
328.121
329.043
329.955
330.853
331.732
332.59
333.422
334.223
334.99
335.717
336.401
337.038
337.623
338.152
338.623
339.032
339.377
339.655
339.863
340.002
340.069
340.064
339.988
339.841
339.624
339.338
338.986
338.57
338.092
337.557
336.968
336.328
335.643
334.916
334.152
333.356
332.532
331.685
330.821
329.943
329.056
328.165
327.274
326.387
325.507
324.637
323.782
322.942
322.122
321.322
320.544
319.789
319.058
318.35
317.667
317.006
316.366
315.747
315.146
314.56
313.986
313.42
312.857
312.294
311.722
311.137
310.529
309.889
309.207
308.467
307.654
306.745
305.71
304.506
303.061
301.242
301.458
303.708
305.585
307.222
308.69
310.034
311.284
312.462
313.584
314.664
315.713
316.739
317.75
318.751
319.747
320.742
321.737
322.735
323.737
324.743
325.753
326.764
327.777
328.788
329.795
330.794
331.782
332.755
333.71
334.64
335.543
336.412
337.244
338.034
338.777
339.468
340.103
340.679
341.191
341.636
342.011
342.313
342.54
342.692
342.766
342.762
342.68
342.522
342.287
341.978
341.597
341.146
340.629
340.049
339.411
338.718
337.975
337.186
336.358
335.494
334.601
333.683
332.745
331.793
330.831
329.864
328.898
327.935
326.98
326.037
325.109
324.199
323.309
322.442
321.598
320.78
319.987
319.221
318.481
317.766
317.075
316.406
315.758
315.127
314.509
313.902
313.3
312.699
312.091
311.47
310.828
310.155
309.44
308.668
307.823
306.883
305.818
304.583
303.107
301.257
301.488
303.798
305.735
307.432
308.961
310.367
311.678
312.919
314.104
315.249
316.363
317.456
318.534
319.604
320.671
321.737
322.806
323.878
324.956
326.039
327.126
328.216
329.308
330.398
331.485
332.563
333.63
334.681
335.712
336.717
337.692
338.632
339.531
340.385
341.188
341.936
342.624
343.246
343.801
344.282
344.688
345.016
345.263
345.428
345.509
345.507
345.42
345.249
344.997
344.664
344.253
343.767
343.21
342.584
341.895
341.147
340.345
339.494
338.599
337.666
336.701
335.71
334.697
333.668
332.629
331.585
330.54
329.5
328.469
327.45
326.448
325.464
324.503
323.566
322.656
321.772
320.917
320.091
319.293
318.522
317.778
317.059
316.362
315.685
315.024
314.375
313.733
313.093
312.449
311.793
311.117
310.411
309.664
308.861
307.986
307.016
305.92
304.656
303.151
301.272
301.517
303.887
305.883
307.641
309.23
310.696
312.07
313.373
314.622
315.831
317.011
318.171
319.318
320.458
321.596
322.735
323.878
325.027
326.182
327.343
328.51
329.68
330.853
332.025
333.192
334.352
335.5
336.63
337.739
338.821
339.871
340.883
341.852
342.771
343.637
344.442
345.183
345.855
346.453
346.972
347.411
347.765
348.032
348.211
348.3
348.298
348.206
348.024
347.754
347.397
346.956
346.434
345.835
345.162
344.421
343.617
342.754
341.838
340.876
339.873
338.834
337.767
336.677
335.57
334.452
333.328
332.204
331.084
329.974
328.878
327.799
326.741
325.706
324.698
323.719
322.769
321.849
320.961
320.104
319.277
318.478
317.708
316.961
316.237
315.532
314.84
314.158
313.48
312.799
312.108
311.398
310.659
309.88
309.047
308.142
307.143
306.019
304.726
303.192
301.286
301.547
303.975
306.031
307.848
309.497
311.025
312.46
313.825
315.138
316.412
317.658
318.886
320.102
321.313
322.524
323.737
324.956
326.182
327.415
328.656
329.904
331.157
332.412
333.667
334.918
336.16
337.391
338.603
339.792
340.953
342.079
343.165
344.204
345.192
346.121
346.986
347.782
348.503
349.146
349.705
350.176
350.558
350.846
351.039
351.136
351.136
351.038
350.845
350.556
350.174
349.703
349.144
348.502
347.782
346.988
346.126
345.202
344.22
343.188
342.113
340.999
339.855
338.686
337.499
336.299
335.094
333.888
332.688
331.497
330.321
329.164
328.029
326.92
325.839
324.789
323.77
322.785
321.834
320.916
320.031
319.177
318.354
317.558
316.786
316.035
315.301
314.578
313.86
313.142
312.416
311.672
310.902
310.092
309.228
308.294
307.266
306.114
304.794
303.233
301.299
301.576
304.063
306.178
308.054
309.764
311.351
312.848
314.276
315.653
316.992
318.306
319.602
320.888
322.171
323.455
324.743
326.039
327.343
328.656
329.979
331.309
332.645
333.985
335.324
336.66
337.987
339.302
340.597
341.868
343.109
344.314
345.475
346.587
347.643
348.638
349.564
350.416
351.189
351.877
352.476
352.982
353.391
353.701
353.909
354.014
354.016
353.913
353.708
353.401
352.994
352.491
351.895
351.21
350.441
349.594
348.673
347.685
346.637
345.534
344.385
343.195
341.972
340.722
339.453
338.171
336.882
335.593
334.309
333.036
331.779
330.542
329.329
328.143
326.988
325.866
324.778
323.726
322.71
321.73
320.786
319.876
318.999
318.152
317.332
316.535
315.757
314.993
314.237
313.481
312.72
311.942
311.139
310.298
309.405
308.442
307.386
306.207
304.859
303.272
301.312
301.605
304.151
306.324
308.259
310.029
311.677
313.236
314.727
316.168
317.573
318.953
320.318
321.675
323.03
324.388
325.753
327.126
328.51
329.904
331.309
332.723
334.144
335.569
336.995
338.417
339.83
341.23
342.611
343.965
345.288
346.572
347.81
348.996
350.123
351.184
352.172
353.082
353.907
354.642
355.282
355.823
356.261
356.593
356.817
356.931
356.934
356.826
356.609
356.283
355.852
355.317
354.683
353.954
353.136
352.234
351.253
350.201
349.085
347.91
346.686
345.418
344.114
342.783
341.43
340.064
338.691
337.317
335.948
334.592
333.252
331.933
330.64
329.377
328.146
326.95
325.791
324.671
323.589
322.546
321.542
320.575
319.644
318.745
317.876
317.032
316.211
315.405
314.609
313.816
313.019
312.208
311.373
310.501
309.579
308.587
307.503
306.297
304.924
303.311
301.325
301.634
304.238
306.47
308.464
310.293
312.002
313.622
315.176
316.681
318.152
319.6
321.034
322.462
323.89
325.323
326.764
328.216
329.68
331.157
332.645
334.144
335.651
337.163
338.676
340.185
341.686
343.173
344.639
346.079
347.485
348.85
350.166
351.427
352.626
353.754
354.806
355.774
356.652
357.435
358.117
358.694
359.161
359.516
359.756
359.879
359.884
359.772
359.542
359.198
358.741
358.174
357.502
356.729
355.861
354.903
353.863
352.745
351.56
350.312
349.011
347.664
346.28
344.865
343.428
341.976
340.516
339.056
337.602
336.16
334.736
333.335
331.961
330.618
329.311
328.04
326.809
325.62
324.471
323.365
322.3
321.275
320.288
319.337
318.418
317.528
316.662
315.814
314.978
314.148
313.316
312.471
311.604
310.701
309.749
308.729
307.619
306.386
304.987
303.348
301.338
301.663
304.325
306.615
308.668
310.557
312.326
314.008
315.624
317.194
318.731
320.246
321.75
323.249
324.75
326.258
327.777
329.308
330.853
332.412
333.985
335.569
337.163
338.762
340.363
341.961
343.551
345.126
346.679
348.204
349.694
351.141
352.537
353.874
355.145
356.342
357.458
358.486
359.418
360.25
360.974
361.588
362.085
362.463
362.719
362.851
362.859
362.742
362.501
362.138
361.655
361.056
360.346
359.528
358.609
357.596
356.494
355.311
354.055
352.734
351.356
349.929
348.462
346.963
345.441
343.902
342.355
340.808
339.267
337.739
336.23
334.745
333.289
331.867
330.481
329.135
327.831
326.571
325.356
324.185
323.058
321.975
320.932
319.928
318.959
318.022
317.111
316.221
315.345
314.478
313.609
312.731
311.831
310.899
309.918
308.87
307.732
306.474
305.049
303.386
301.35
301.692
304.411
306.759
308.871
310.818
312.648
314.391
316.07
317.704
319.307
320.89
322.463
324.034
325.608
327.192
328.788
330.398
332.025
333.667
335.324
336.995
338.676
340.363
342.053
343.741
345.419
347.083
348.724
350.336
351.91
353.44
354.916
356.33
357.674
358.941
360.122
361.209
362.197
363.077
363.845
364.495
365.023
365.424
365.697
365.839
365.849
365.728
365.475
365.093
364.585
363.954
363.205
362.343
361.373
360.303
359.14
357.891
356.565
355.17
353.714
352.207
350.657
349.073
347.464
345.838
344.204
342.568
340.94
339.325
337.73
336.16
334.622
333.119
331.654
330.232
328.855
327.524
326.241
325.005
323.816
322.674
321.575
320.518
319.498
318.513
317.557
316.625
315.709
314.804
313.9
312.988
312.057
311.094
310.084
309.009
307.844
306.56
305.11
303.422
301.362
301.72
304.497
306.902
309.072
311.078
312.968
314.772
316.513
318.211
319.879
321.529
323.172
324.814
326.462
328.121
329.795
331.485
333.192
334.918
336.66
338.417
340.185
341.961
343.741
345.517
347.285
349.038
350.767
352.466
354.126
355.739
357.295
358.787
360.205
361.541
362.787
363.935
364.978
365.908
366.72
367.407
367.966
368.391
368.681
368.833
368.846
368.72
368.456
368.056
367.522
366.859
366.071
365.164
364.144
363.018
361.793
360.478
359.081
357.611
356.077
354.489
352.856
351.187
349.491
347.778
346.055
344.332
342.615
340.913
339.231
337.577
335.955
334.371
332.828
331.329
329.878
328.476
327.125
325.823
324.572
323.37
322.215
321.104
320.035
319.002
318.001
317.026
316.071
315.128
314.188
313.242
312.28
311.287
310.248
309.145
307.955
306.645
305.17
303.458
301.374
301.748
304.581
307.044
309.271
311.335
313.284
315.148
316.952
318.713
320.446
322.163
323.875
325.588
327.309
329.043
330.794
332.563
334.352
336.16
337.987
339.83
341.686
343.551
345.419
347.285
349.143
350.984
352.802
354.588
356.333
358.029
359.666
361.235
362.727
364.134
365.446
366.654
367.752
368.732
369.588
370.313
370.902
371.352
371.659
371.821
371.837
371.707
371.432
371.014
370.455
369.76
368.934
367.982
366.911
365.728
364.442
363.061
361.594
360.049
358.438
356.769
355.052
353.298
351.516
349.715
347.904
346.092
344.287
342.497
340.73
338.991
337.286
335.62
333.998
332.423
330.898
329.425
328.005
326.638
325.324
324.063
322.851
321.687
320.567
319.487
318.441
317.423
316.428
315.448
314.473
313.494
312.5
311.477
310.41
309.28
308.063
306.729
305.229
303.493
301.386
301.776
304.665
307.183
309.467
311.589
313.596
315.52
317.385
319.208
321.006
322.79
324.569
326.353
328.146
329.955
331.782
333.63
335.5
337.391
339.302
341.23
343.173
345.126
347.083
349.038
350.984
352.915
354.82
356.693
358.523
360.302
362.019
363.666
365.232
366.708
368.086
369.355
370.508
371.538
372.438
373.2
373.821
374.295
374.62
374.792
374.812
374.678
374.392
373.955
373.372
372.645
371.781
370.785
369.663
368.425
367.078
365.631
364.093
362.475
360.786
359.037
357.238
355.398
353.53
351.641
349.742
347.842
345.95
344.073
342.219
340.396
338.608
336.861
335.16
333.509
331.91
330.366
328.878
327.446
326.071
324.75
323.482
322.265
321.094
319.966
318.876
317.816
316.782
315.764
314.754
313.742
312.717
311.664
310.569
309.413
308.171
306.811
305.288
303.528
301.397
301.803
304.747
307.32
309.659
311.838
313.903
315.885
317.81
319.695
321.557
323.406
325.252
327.105
328.97
330.853
332.755
334.681
336.63
338.603
340.597
342.611
344.639
346.679
348.724
350.767
352.802
354.82
356.813
358.772
360.687
362.548
364.345
366.068
367.708
369.253
370.696
372.026
373.234
374.314
375.257
376.057
376.709
377.207
377.549
377.733
377.756
377.618
377.322
376.868
376.26
375.502
374.6
373.56
372.39
371.096
369.689
368.176
366.569
364.878
363.112
361.283
359.402
357.479
355.525
353.549
351.563
349.576
347.597
345.634
343.695
341.787
339.917
338.09
336.311
334.584
332.912
331.297
329.742
328.245
326.808
325.429
324.105
322.835
321.615
320.44
319.305
318.204
317.13
316.075
315.031
313.986
312.93
311.848
310.726
309.543
308.276
306.892
305.345
303.562
301.409
301.83
304.827
307.454
309.848
312.082
314.203
316.243
318.227
320.172
322.096
324.009
325.922
327.843
329.778
331.732
333.71
335.712
337.739
339.792
341.868
343.965
346.079
348.204
350.336
352.466
354.588
356.693
358.772
360.816
362.814
364.756
366.632
368.431
370.143
371.757
373.264
374.654
375.917
377.046
378.032
378.87
379.552
380.075
380.435
380.629
380.656
380.515
380.208
379.737
379.106
378.318
377.379
376.296
375.077
373.729
372.262
370.686
369.01
367.247
365.406
363.498
361.536
359.53
357.491
355.431
353.359
351.286
349.22
347.172
345.149
343.158
341.207
339.301
337.444
335.643
333.899
332.215
330.592
329.032
327.534
326.096
324.718
323.396
322.126
320.905
319.726
318.584
317.472
316.381
315.302
314.226
313.139
312.029
310.879
309.671
308.379
306.971
305.401
303.596
301.42
301.856
304.905
307.585
310.031
312.319
314.495
316.591
318.632
320.637
322.621
324.596
326.574
328.561
330.565
332.59
334.64
336.717
338.821
340.953
343.109
345.288
347.485
349.694
351.91
354.126
356.333
358.523
360.687
362.814
364.893
366.916
368.869
370.743
372.526
374.208
375.778
377.226
378.544
379.721
380.75
381.624
382.338
382.885
383.262
383.467
383.498
383.354
383.038
382.55
381.895
381.078
380.103
378.978
377.711
376.311
374.786
373.147
371.405
369.57
367.655
365.671
363.629
361.542
359.421
357.277
355.12
352.963
350.813
348.681
346.575
344.503
342.472
340.488
338.556
336.681
334.866
333.114
331.426
329.803
328.245
326.751
325.318
323.945
322.627
321.36
320.139
318.957
317.806
316.68
315.568
314.46
313.344
312.205
311.029
309.795
308.479
307.048
305.456
303.628
301.431
301.881
304.98
307.711
310.209
312.549
314.778
316.928
319.025
321.087
323.13
325.166
327.206
329.258
331.328
333.422
335.543
337.692
339.871
342.079
344.314
346.572
348.85
351.141
353.44
355.739
358.029
360.302
362.548
364.756
366.916
369.016
371.045
372.991
374.844
376.592
378.224
379.73
381.1
382.325
383.396
384.307
385.05
385.621
386.016
386.232
386.267
386.121
385.795
385.292
384.615
383.768
382.759
381.594
380.28
378.828
377.247
375.547
373.74
371.837
369.849
367.79
365.672
363.505
361.303
359.077
356.839
354.599
352.367
350.153
347.967
345.815
343.707
341.646
339.641
337.694
335.81
333.991
332.239
330.555
328.938
327.389
325.904
324.48
323.115
321.804
320.541
319.319
318.132
316.971
315.826
314.687
313.542
312.377
311.175
309.916
308.577
307.123
305.509
303.66
301.441
301.906
305.053
307.833
310.38
312.77
315.05
317.252
319.403
321.52
323.619
325.714
327.814
329.929
332.063
334.223
336.412
338.632
340.883
343.165
345.475
347.81
350.166
352.537
354.916
357.295
359.666
362.019
364.345
366.632
368.869
371.045
373.147
375.165
377.085
378.898
380.59
382.152
383.573
384.844
385.956
386.902
387.675
388.27
388.682
388.908
388.947
388.799
388.465
387.947
387.248
386.375
385.332
384.127
382.769
381.268
379.632
377.873
376.003
374.033
371.976
369.845
367.651
365.408
363.128
360.823
358.505
356.185
353.874
351.581
349.316
347.088
344.904
342.77
340.692
338.676
336.725
334.841
333.027
331.283
329.61
328.007
326.471
324.999
323.588
322.234
320.93
319.67
318.447
317.252
316.076
314.907
313.735
312.543
311.316
310.034
308.671
307.196
305.56
303.691
301.451
301.929
305.123
307.949
310.543
312.981
315.31
317.562
319.764
321.933
324.087
326.238
328.396
330.57
332.766
334.99
337.244
339.531
341.852
344.204
346.587
348.996
351.427
353.874
356.33
358.787
361.235
363.666
366.068
368.431
370.743
372.991
375.165
377.25
379.236
381.111
382.861
384.477
385.948
387.264
388.416
389.396
390.198
390.815
391.244
391.481
391.525
391.375
391.033
390.5
389.782
388.882
387.807
386.565
385.165
383.615
381.928
380.112
378.182
376.148
374.024
371.823
369.558
367.241
364.886
362.505
360.11
357.713
355.325
352.956
350.616
348.314
346.057
343.852
341.706
339.622
337.606
335.66
333.786
331.985
330.258
328.602
327.017
325.498
324.044
322.648
321.305
320.008
318.75
317.523
316.316
315.119
313.919
312.702
311.451
310.146
308.762
307.265
305.609
303.72
301.461
301.95
305.188
308.059
310.698
313.181
315.556
317.856
320.106
322.326
324.531
326.735
328.948
331.178
333.433
335.717
338.034
340.385
342.771
345.192
347.643
350.123
352.626
355.145
357.674
360.205
362.727
365.232
367.708
370.143
372.526
374.844
377.085
379.236
381.285
383.218
385.025
386.693
388.211
389.57
390.76
391.774
392.603
393.242
393.688
393.935
393.984
393.833
393.483
392.938
392.2
391.275
390.171
388.893
387.452
385.858
384.12
382.251
380.263
378.169
375.981
373.714
371.38
368.993
366.566
364.113
361.645
359.174
356.713
354.271
351.86
349.486
347.16
344.887
342.674
340.527
338.449
336.443
334.512
332.657
330.877
329.172
327.539
325.976
324.479
323.043
321.663
320.331
319.04
317.782
316.546
315.322
314.096
312.855
311.581
310.254
308.849
307.332
305.657
303.748
301.471
301.971
305.25
308.162
310.843
313.369
315.787
318.132
320.427
322.694
324.948
327.202
329.466
331.75
334.06
336.401
338.777
341.188
343.637
346.121
348.638
351.184
353.754
356.342
358.941
361.541
364.134
366.708
369.253
371.757
374.208
376.592
378.898
381.111
383.218
385.208
387.068
388.785
390.349
391.749
392.975
394.02
394.876
395.537
395.998
396.256
396.309
396.157
395.801
395.244
394.488
393.541
392.408
391.097
389.618
387.981
386.197
384.277
382.235
380.084
377.836
375.505
373.107
370.653
368.159
365.637
363.099
360.56
358.029
355.519
353.039
350.598
348.206
345.869
343.594
341.385
339.249
337.187
335.201
333.294
331.464
329.712
328.034
326.429
324.892
323.418
322.002
320.637
319.315
318.028
316.764
315.514
314.264
312.999
311.704
310.356
308.931
307.395
305.701
303.775
301.479
301.99
305.307
308.258
310.978
313.543
316.002
318.388
320.726
323.037
325.335
327.636
329.949
332.282
334.644
337.038
339.468
341.936
344.442
346.986
349.564
352.172
354.806
357.458
360.122
362.787
365.446
368.086
370.696
373.264
375.778
378.224
380.59
382.861
385.025
387.068
388.977
390.741
392.348
393.786
395.048
396.122
397.003
397.685
398.161
398.429
398.487
398.335
397.973
397.404
396.632
395.664
394.505
393.163
391.649
389.972
388.145
386.178
384.085
381.88
379.576
377.187
374.728
372.212
369.654
367.067
364.465
361.861
359.265
356.69
354.146
351.643
349.189
346.791
344.457
342.192
340
337.885
335.849
333.892
332.016
330.219
328.5
326.855
325.28
323.771
322.322
320.925
319.574
318.258
316.969
315.694
314.421
313.135
311.819
310.452
309.008
307.454
305.743
303.8
301.488
302.008
305.36
308.345
311.101
313.703
316.199
318.623
321
323.351
325.691
328.035
330.392
332.771
335.18
337.623
340.103
342.624
345.183
347.782
350.416
353.082
355.774
358.486
361.209
363.935
366.654
369.355
372.026
374.654
377.226
379.73
382.152
384.477
386.693
388.785
390.741
392.548
394.195
395.67
396.963
398.066
398.971
399.671
400.162
400.44
400.503
400.35
399.984
399.405
398.619
397.631
396.448
395.078
393.532
391.819
389.951
387.941
385.801
383.546
381.19
378.747
376.232
373.659
371.043
368.396
365.734
363.069
360.413
357.779
355.175
352.614
350.102
347.649
345.26
342.942
340.699
338.535
336.451
334.449
332.53
330.692
328.933
327.251
325.641
324.099
322.619
321.193
319.814
318.473
317.16
315.862
314.568
313.261
311.926
310.541
309.08
307.51
305.782
303.823
301.495
302.023
305.407
308.425
311.213
313.848
316.377
318.836
321.248
323.635
326.013
328.395
330.792
333.213
335.665
338.152
340.679
343.246
345.855
348.503