/*--------------------------------*- C++ -*----------------------------------*\
  =========                 |
  \\      /  F ield         | OpenFOAM: The Open Source CFD Toolbox
   \\    /   O peration     | Website:  https://openfoam.org
    \\  /    A nd           | Version:  9
     \\/     M anipulation  |
\*---------------------------------------------------------------------------*/
FoamFile
{
    format      ascii;
    class       volScalarField;
    location    "0.5";
    object      gradTz;
}
// * * * * * * * * * * * * * * * * * * * * * * * * * * * * * * * * * * * * * //

dimensions      [0 -1 0 1 0 0 0];

internalField   nonuniform List<scalar> 
200000
(
-6343.11
-6865.21
-7018.35
-7073.91
-7098.12
-7110.23
-7116.91
-7120.84
-7123.24
-7124.75
-7125.68
-7126.25
-7126.58
-7126.73
-7126.76
-7126.7
-7126.59
-7126.43
-7126.24
-7126.02
-7125.79
-7125.55
-7125.31
-7125.06
-7124.81
-7124.57
-7124.33
-7124.1
-7123.87
-7123.65
-7123.44
-7123.25
-7123.06
-7122.88
-7122.72
-7122.57
-7122.43
-7122.3
-7122.19
-7122.1
-7122.01
-7121.95
-7121.89
-7121.86
-7121.83
-7121.82
-7121.83
-7121.85
-7121.89
-7121.94
-7122
-7122.08
-7122.17
-7122.28
-7122.4
-7122.53
-7122.67
-7122.82
-7122.99
-7123.16
-7123.34
-7123.54
-7123.74
-7123.94
-7124.16
-7124.38
-7124.61
-7124.84
-7125.07
-7125.31
-7125.55
-7125.8
-7126.04
-7126.28
-7126.52
-7126.76
-7126.99
-7127.22
-7127.43
-7127.64
-7127.82
-7127.99
-7128.12
-7128.22
-7128.27
-7128.25
-7128.14
-7127.9
-7127.49
-7126.83
-7125.79
-7124.19
-7121.68
-7117.64
-7110.86
-7098.63
-7074.32
-7018.64
-6865.38
-6343.17
-6865.21
-7868.71
-8222.47
-8366.16
-8432.78
-8467.21
-8486.52
-8497.99
-8505.06
-8509.48
-8512.25
-8513.93
-8514.88
-8515.32
-8515.4
-8515.23
-8514.88
-8514.4
-8513.82
-8513.18
-8512.49
-8511.77
-8511.04
-8510.3
-8509.56
-8508.83
-8508.11
-8507.41
-8506.73
-8506.07
-8505.45
-8504.85
-8504.29
-8503.76
-8503.27
-8502.82
-8502.4
-8502.03
-8501.69
-8501.4
-8501.16
-8500.96
-8500.8
-8500.68
-8500.61
-8500.59
-8500.61
-8500.68
-8500.78
-8500.93
-8501.13
-8501.36
-8501.64
-8501.95
-8502.31
-8502.7
-8503.12
-8503.58
-8504.07
-8504.59
-8505.14
-8505.72
-8506.32
-8506.95
-8507.59
-8508.25
-8508.93
-8509.63
-8510.33
-8511.05
-8511.77
-8512.5
-8513.23
-8513.96
-8514.68
-8515.39
-8516.09
-8516.76
-8517.41
-8518.02
-8518.58
-8519.07
-8519.48
-8519.77
-8519.92
-8519.87
-8519.54
-8518.85
-8517.63
-8515.68
-8512.62
-8507.89
-8500.52
-8488.73
-8469.09
-8434.32
-8367.37
-8223.34
-7869.23
-6865.38
-7018.35
-8222.47
-8685.89
-8887.97
-8986.54
-9039.24
-9069.44
-9087.63
-9098.93
-9106.05
-9110.51
-9113.22
-9114.74
-9115.44
-9115.56
-9115.26
-9114.67
-9113.85
-9112.89
-9111.81
-9110.66
-9109.46
-9108.24
-9107
-9105.77
-9104.55
-9103.35
-9102.18
-9101.05
-9099.96
-9098.92
-9097.92
-9096.99
-9096.11
-9095.29
-9094.53
-9093.84
-9093.22
-9092.66
-9092.18
-9091.77
-9091.43
-9091.17
-9090.98
-9090.86
-9090.82
-9090.86
-9090.96
-9091.15
-9091.4
-9091.72
-9092.11
-9092.57
-9093.1
-9093.69
-9094.33
-9095.04
-9095.81
-9096.63
-9097.49
-9098.41
-9099.37
-9100.37
-9101.41
-9102.49
-9103.59
-9104.72
-9105.88
-9107.06
-9108.25
-9109.46
-9110.67
-9111.88
-9113.09
-9114.3
-9115.48
-9116.64
-9117.77
-9118.85
-9119.87
-9120.8
-9121.63
-9122.31
-9122.81
-9123.07
-9123
-9122.48
-9121.36
-9119.4
-9116.22
-9111.27
-9103.66
-9091.84
-9073.12
-9042.36
-8989.11
-8889.98
-8687.33
-8223.34
-7018.64
-7073.91
-8366.16
-8887.97
-9126.37
-9247.29
-9313.88
-9352.88
-9376.71
-9391.66
-9401.13
-9407.09
-9410.7
-9412.72
-9413.63
-9413.75
-9413.3
-9412.44
-9411.28
-9409.92
-9408.4
-9406.79
-9405.11
-9403.39
-9401.66
-9399.93
-9398.22
-9396.54
-9394.91
-9393.32
-9391.8
-9390.34
-9388.95
-9387.64
-9386.4
-9385.26
-9384.2
-9383.23
-9382.36
-9381.58
-9380.91
-9380.33
-9379.86
-9379.49
-9379.23
-9379.07
-9379.01
-9379.06
-9379.21
-9379.46
-9379.81
-9380.26
-9380.81
-9381.45
-9382.19
-9383.01
-9383.92
-9384.91
-9385.98
-9387.13
-9388.34
-9389.63
-9390.97
-9392.37
-9393.83
-9395.33
-9396.88
-9398.46
-9400.08
-9401.73
-9403.4
-9405.09
-9406.78
-9408.48
-9410.18
-9411.86
-9413.53
-9415.15
-9416.73
-9418.25
-9419.67
-9420.99
-9422.15
-9423.12
-9423.84
-9424.22
-9424.15
-9423.48
-9421.99
-9419.34
-9415.08
-9408.44
-9398.26
-9382.59
-9358.02
-9318.26
-9250.89
-9129.18
-8889.98
-8367.37
-7074.32
-7098.12
-8432.78
-8986.54
-9247.29
-9383.34
-9460.06
-9505.82
-9534.17
-9552.12
-9563.57
-9570.79
-9575.16
-9577.58
-9578.63
-9578.7
-9578.07
-9576.93
-9575.42
-9573.64
-9571.68
-9569.6
-9567.43
-9565.21
-9562.98
-9560.76
-9558.56
-9556.41
-9554.3
-9552.27
-9550.31
-9548.43
-9546.64
-9544.96
-9543.37
-9541.9
-9540.54
-9539.29
-9538.17
-9537.18
-9536.31
-9535.57
-9534.96
-9534.49
-9534.15
-9533.94
-9533.87
-9533.93
-9534.12
-9534.44
-9534.9
-9535.48
-9536.18
-9537.01
-9537.95
-9539.01
-9540.18
-9541.46
-9542.83
-9544.3
-9545.86
-9547.51
-9549.24
-9551.04
-9552.91
-9554.84
-9556.83
-9558.87
-9560.95
-9563.07
-9565.21
-9567.38
-9569.56
-9571.75
-9573.93
-9576.1
-9578.23
-9580.33
-9582.36
-9584.31
-9586.15
-9587.85
-9589.36
-9590.63
-9591.58
-9592.1
-9592.07
-9591.29
-9589.48
-9586.26
-9581.05
-9572.97
-9560.62
-9541.73
-9512.43
-9465.69
-9387.97
-9250.9
-8989.13
-8434.33
-7098.64
-7110.23
-8467.21
-9039.24
-9313.88
-9460.06
-9543.99
-9594.8
-9626.63
-9646.96
-9659.99
-9668.22
-9673.18
-9675.89
-9677.01
-9676.98
-9676.14
-9674.69
-9672.81
-9670.61
-9668.2
-9665.63
-9662.98
-9660.26
-9657.53
-9654.81
-9652.13
-9649.49
-9646.92
-9644.43
-9642.03
-9639.74
-9637.56
-9635.5
-9633.56
-9631.76
-9630.1
-9628.58
-9627.21
-9625.99
-9624.93
-9624.03
-9623.29
-9622.71
-9622.29
-9622.04
-9621.95
-9622.02
-9622.26
-9622.65
-9623.21
-9623.92
-9624.78
-9625.79
-9626.94
-9628.23
-9629.66
-9631.22
-9632.9
-9634.69
-9636.6
-9638.61
-9640.73
-9642.93
-9645.21
-9647.57
-9650
-9652.49
-9655.03
-9657.62
-9660.24
-9662.89
-9665.56
-9668.23
-9670.89
-9673.54
-9676.16
-9678.72
-9681.21
-9683.6
-9685.86
-9687.95
-9689.81
-9691.39
-9692.58
-9693.28
-9693.31
-9692.47
-9690.43
-9686.74
-9680.75
-9671.47
-9657.34
-9635.87
-9602.86
-9550.86
-9465.72
-9318.3
-9042.4
-8469.11
-7110.86
-7116.91
-8486.52
-9069.44
-9352.88
-9505.82
-9594.8
-9649.27
-9683.72
-9705.86
-9720.1
-9729.09
-9734.49
-9737.38
-9738.48
-9738.31
-9737.21
-9735.43
-9733.15
-9730.52
-9727.65
-9724.6
-9721.45
-9718.23
-9715
-9711.79
-9708.61
-9705.49
-9702.45
-9699.51
-9696.68
-9693.97
-9691.39
-9688.95
-9686.67
-9684.54
-9682.58
-9680.78
-9679.17
-9677.73
-9676.48
-9675.41
-9674.53
-9673.85
-9673.35
-9673.05
-9672.95
-9673.04
-9673.31
-9673.78
-9674.44
-9675.27
-9676.29
-9677.48
-9678.84
-9680.37
-9682.06
-9683.89
-9685.88
-9688
-9690.25
-9692.63
-9695.12
-9697.72
-9700.42
-9703.21
-9706.08
-9709.02
-9712.02
-9715.08
-9718.18
-9721.31
-9724.45
-9727.61
-9730.76
-9733.89
-9736.98
-9740.02
-9742.96
-9745.8
-9748.48
-9750.97
-9753.19
-9755.09
-9756.55
-9757.45
-9757.59
-9756.74
-9754.54
-9750.5
-9743.9
-9733.65
-9718.11
-9694.62
-9658.79
-9602.91
-9512.5
-9358.09
-9073.18
-8488.77
-7117.66
-7120.84
-8497.99
-9087.63
-9376.71
-9534.17
-9626.63
-9683.72
-9720.06
-9743.53
-9758.66
-9768.18
-9773.85
-9776.81
-9777.84
-9777.46
-9776.06
-9773.92
-9771.23
-9768.16
-9764.81
-9761.27
-9757.62
-9753.9
-9750.17
-9746.45
-9742.78
-9739.18
-9735.68
-9732.28
-9729.02
-9725.89
-9722.92
-9720.11
-9717.47
-9715.02
-9712.75
-9710.69
-9708.82
-9707.16
-9705.72
-9704.49
-9703.48
-9702.69
-9702.12
-9701.77
-9701.65
-9701.75
-9702.07
-9702.61
-9703.36
-9704.33
-9705.5
-9706.87
-9708.44
-9710.2
-9712.15
-9714.27
-9716.55
-9719
-9721.6
-9724.34
-9727.21
-9730.21
-9733.32
-9736.54
-9739.85
-9743.24
-9746.7
-9750.22
-9753.79
-9757.4
-9761.04
-9764.68
-9768.31
-9771.93
-9775.5
-9779
-9782.41
-9785.69
-9788.8
-9791.69
-9794.29
-9796.52
-9798.27
-9799.39
-9799.68
-9798.88
-9796.59
-9792.31
-9785.25
-9774.27
-9757.65
-9732.63
-9694.7
-9635.98
-9541.86
-9382.72
-9091.94
-8500.58
-7121.7
-7123.24
-8505.06
-9098.93
-9391.66
-9552.12
-9646.96
-9705.86
-9743.53
-9767.93
-9783.65
-9793.51
-9799.31
-9802.24
-9803.11
-9802.47
-9800.75
-9798.22
-9795.1
-9791.57
-9787.73
-9783.7
-9779.54
-9775.32
-9771.08
-9766.86
-9762.7
-9758.62
-9754.65
-9750.8
-9747.1
-9743.56
-9740.19
-9737.01
-9734.03
-9731.25
-9728.68
-9726.34
-9724.23
-9722.35
-9720.71
-9719.32
-9718.17
-9717.28
-9716.63
-9716.24
-9716.1
-9716.21
-9716.58
-9717.19
-9718.04
-9719.13
-9720.46
-9722.01
-9723.79
-9725.79
-9727.99
-9730.39
-9732.98
-9735.75
-9738.69
-9741.79
-9745.05
-9748.44
-9751.96
-9755.6
-9759.35
-9763.19
-9767.11
-9771.1
-9775.15
-9779.23
-9783.35
-9787.47
-9791.59
-9795.69
-9799.74
-9803.71
-9807.58
-9811.31
-9814.86
-9818.16
-9821.15
-9823.73
-9825.78
-9827.16
-9827.63
-9826.92
-9824.63
-9820.2
-9812.83
-9801.33
-9783.91
-9757.76
-9718.29
-9657.55
-9560.83
-9398.46
-9103.81
-8507.99
-7124.22
-7124.75
-8509.48
-9106.05
-9401.13
-9563.57
-9659.99
-9720.1
-9758.66
-9783.65
-9799.73
-9809.76
-9815.56
-9818.37
-9819.01
-9818.07
-9815.98
-9813.04
-9809.47
-9805.46
-9801.14
-9796.6
-9791.93
-9787.2
-9782.45
-9777.73
-9773.08
-9768.52
-9764.08
-9759.78
-9755.65
-9751.69
-9747.93
-9744.38
-9741.05
-9737.94
-9735.08
-9732.46
-9730.1
-9728.01
-9726.18
-9724.62
-9723.34
-9722.34
-9721.62
-9721.18
-9721.03
-9721.15
-9721.56
-9722.24
-9723.19
-9724.41
-9725.89
-9727.63
-9729.61
-9731.84
-9734.29
-9736.97
-9739.86
-9742.96
-9746.24
-9749.71
-9753.34
-9757.13
-9761.06
-9765.13
-9769.31
-9773.6
-9777.97
-9782.43
-9786.95
-9791.51
-9796.11
-9800.72
-9805.32
-9809.9
-9814.43
-9818.87
-9823.21
-9827.39
-9831.37
-9835.09
-9838.47
-9841.42
-9843.8
-9845.45
-9846.15
-9845.59
-9843.36
-9838.88
-9831.31
-9819.46
-9801.48
-9774.53
-9733.97
-9671.8
-9573.29
-9408.72
-9111.49
-8512.75
-7125.84
-7125.68
-8512.25
-9110.51
-9407.09
-9570.79
-9668.22
-9729.09
-9768.18
-9793.51
-9809.76
-9819.8
-9825.5
-9828.1
-9828.46
-9827.17
-9824.68
-9821.3
-9817.27
-9812.78
-9807.95
-9802.9
-9797.72
-9792.47
-9787.22
-9782
-9776.85
-9771.81
-9766.91
-9762.16
-9757.6
-9753.23
-9749.08
-9745.15
-9741.47
-9738.04
-9734.88
-9731.99
-9729.39
-9727.07
-9725.05
-9723.33
-9721.92
-9720.81
-9720.02
-9719.54
-9719.36
-9719.5
-9719.95
-9720.7
-9721.75
-9723.09
-9724.73
-9726.64
-9728.83
-9731.29
-9734
-9736.96
-9740.15
-9743.57
-9747.19
-9751.02
-9755.03
-9759.21
-9763.55
-9768.04
-9772.66
-9777.39
-9782.22
-9787.14
-9792.13
-9797.17
-9802.25
-9807.34
-9812.43
-9817.48
-9822.49
-9827.41
-9832.21
-9836.85
-9841.27
-9845.42
-9849.2
-9852.53
-9855.25
-9857.21
-9858.16
-9857.79
-9855.68
-9851.23
-9843.59
-9831.53
-9813.19
-9785.7
-9744.39
-9681.25
-9581.51
-9415.46
-9116.51
-8515.86
-7126.89
-7126.25
-8513.93
-9113.22
-9410.7
-9575.16
-9673.18
-9734.49
-9773.85
-9799.31
-9815.56
-9825.5
-9831.01
-9833.33
-9833.35
-9831.68
-9828.76
-9824.92
-9820.41
-9815.42
-9810.08
-9804.52
-9798.82
-9793.06
-9787.29
-9781.57
-9775.93
-9770.42
-9765.05
-9759.85
-9754.86
-9750.08
-9745.53
-9741.24
-9737.21
-9733.47
-9730.01
-9726.85
-9724
-9721.46
-9719.25
-9717.37
-9715.83
-9714.62
-9713.75
-9713.22
-9713.03
-9713.18
-9713.66
-9714.48
-9715.63
-9717.1
-9718.89
-9720.98
-9723.38
-9726.07
-9729.03
-9732.26
-9735.75
-9739.49
-9743.46
-9747.64
-9752.02
-9756.6
-9761.35
-9766.25
-9771.3
-9776.48
-9781.77
-9787.15
-9792.61
-9798.12
-9803.68
-9809.25
-9814.82
-9820.36
-9825.84
-9831.23
-9836.5
-9841.6
-9846.47
-9851.04
-9855.24
-9858.95
-9862.04
-9864.32
-9865.55
-9865.42
-9863.48
-9859.13
-9851.51
-9839.36
-9820.82
-9793
-9751.22
-9687.43
-9586.88
-9419.86
-9119.78
-8517.87
-7127.57
-7126.58
-8514.88
-9114.74
-9412.72
-9577.58
-9675.89
-9737.38
-9776.81
-9802.24
-9818.37
-9828.1
-9833.33
-9835.33
-9834.97
-9832.87
-9829.5
-9825.19
-9820.18
-9814.68
-9808.83
-9802.74
-9796.53
-9790.25
-9783.97
-9777.75
-9771.62
-9765.63
-9759.8
-9754.16
-9748.73
-9743.54
-9738.61
-9733.95
-9729.58
-9725.51
-9721.75
-9718.32
-9715.23
-9712.48
-9710.08
-9708.04
-9706.36
-9705.05
-9704.1
-9703.52
-9703.32
-9703.48
-9704.01
-9704.89
-9706.14
-9707.74
-9709.67
-9711.95
-9714.55
-9717.46
-9720.68
-9724.19
-9727.97
-9732.03
-9736.33
-9740.87
-9745.63
-9750.59
-9755.75
-9761.07
-9766.55
-9772.17
-9777.91
-9783.75
-9789.67
-9795.66
-9801.69
-9807.74
-9813.79
-9819.81
-9825.77
-9831.63
-9837.37
-9842.92
-9848.24
-9853.26
-9857.87
-9861.98
-9865.44
-9868.07
-9869.61
-9869.75
-9868.03
-9863.84
-9856.31
-9844.18
-9825.57
-9797.59
-9755.52
-9691.35
-9590.3
-9422.66
-9121.86
-8519.16
-7128
-7126.73
-8515.32
-9115.44
-9413.63
-9578.63
-9677.01
-9738.48
-9777.84
-9803.11
-9819.01
-9828.46
-9833.35
-9834.97
-9834.19
-9831.64
-9827.8
-9822.99
-9817.48
-9811.46
-9805.09
-9798.48
-9791.74
-9784.95
-9778.17
-9771.44
-9764.83
-9758.36
-9752.06
-9745.98
-9740.13
-9734.53
-9729.21
-9724.19
-9719.47
-9715.08
-9711.04
-9707.34
-9704
-9701.03
-9698.45
-9696.25
-9694.43
-9693.02
-9692
-9691.37
-9691.15
-9691.32
-9691.89
-9692.85
-9694.19
-9695.91
-9698
-9700.45
-9703.25
-9706.39
-9709.86
-9713.64
-9717.72
-9722.09
-9726.73
-9731.62
-9736.75
-9742.1
-9747.66
-9753.4
-9759.31
-9765.36
-9771.55
-9777.85
-9784.23
-9790.69
-9797.19
-9803.72
-9810.25
-9816.74
-9823.18
-9829.52
-9835.72
-9841.74
-9847.5
-9852.96
-9858
-9862.51
-9866.36
-9869.35
-9871.23
-9871.66
-9870.2
-9866.22
-9858.85
-9846.82
-9828.25
-9800.22
-9758.03
-9693.66
-9592.33
-9424.33
-9123.11
-8519.93
-7128.27
-7126.76
-8515.4
-9115.56
-9413.75
-9578.7
-9676.98
-9738.31
-9777.46
-9802.47
-9818.07
-9827.17
-9831.68
-9832.87
-9831.64
-9828.63
-9824.29
-9818.97
-9812.95
-9806.41
-9799.51
-9792.38
-9785.13
-9777.82
-9770.52
-9763.3
-9756.2
-9749.25
-9742.5
-9735.98
-9729.7
-9723.7
-9718
-9712.61
-9707.56
-9702.85
-9698.51
-9694.55
-9690.97
-9687.79
-9685.01
-9682.65
-9680.71
-9679.19
-9678.09
-9677.43
-9677.18
-9677.37
-9677.98
-9679
-9680.44
-9682.28
-9684.52
-9687.14
-9690.14
-9693.51
-9697.22
-9701.28
-9705.65
-9710.34
-9715.31
-9720.55
-9726.05
-9731.79
-9737.74
-9743.89
-9750.22
-9756.72
-9763.35
-9770.1
-9776.94
-9783.87
-9790.84
-9797.84
-9804.84
-9811.81
-9818.72
-9825.53
-9832.2
-9838.68
-9844.9
-9850.79
-9856.26
-9861.19
-9865.44
-9868.8
-9871.03
-9871.78
-9870.61
-9866.89
-9859.73
-9847.87
-9829.4
-9801.43
-9759.25
-9694.82
-9593.37
-9425.21
-9123.78
-8520.34
-7128.41
-7126.7
-8515.23
-9115.26
-9413.3
-9578.07
-9676.14
-9737.21
-9776.06
-9800.75
-9815.98
-9824.68
-9828.76
-9829.5
-9827.8
-9824.29
-9819.45
-9813.62
-9807.07
-9800
-9792.58
-9784.93
-9777.15
-9769.32
-9761.53
-9753.81
-9746.22
-9738.81
-9731.6
-9724.64
-9717.94
-9711.54
-9705.46
-9699.71
-9694.32
-9689.3
-9684.67
-9680.44
-9676.62
-9673.23
-9670.27
-9667.75
-9665.67
-9664.05
-9662.88
-9662.17
-9661.91
-9662.1
-9662.75
-9663.84
-9665.37
-9667.33
-9669.72
-9672.52
-9675.72
-9679.31
-9683.27
-9687.59
-9692.26
-9697.25
-9702.55
-9708.14
-9714.01
-9720.12
-9726.47
-9733.03
-9739.79
-9746.71
-9753.78
-9760.98
-9768.29
-9775.67
-9783.11
-9790.58
-9798.05
-9805.49
-9812.87
-9820.15
-9827.29
-9834.22
-9840.9
-9847.23
-9853.13
-9858.49
-9863.13
-9866.88
-9869.48
-9870.58
-9869.72
-9866.29
-9859.38
-9847.73
-9829.45
-9801.61
-9759.52
-9695.14
-9593.71
-9425.51
-9124.02
-8520.5
-7128.46
-7126.59
-8514.88
-9114.67
-9412.44
-9576.93
-9674.69
-9735.43
-9773.92
-9798.22
-9813.04
-9821.3
-9824.92
-9825.19
-9822.99
-9818.97
-9813.62
-9807.27
-9800.19
-9792.6
-9784.65
-9776.47
-9768.17
-9759.84
-9751.54
-9743.33
-9735.26
-9727.38
-9719.72
-9712.32
-9705.21
-9698.41
-9691.95
-9685.85
-9680.12
-9674.79
-9669.87
-9665.38
-9661.32
-9657.72
-9654.58
-9651.9
-9649.7
-9647.97
-9646.73
-9645.97
-9645.69
-9645.9
-9646.58
-9647.74
-9649.36
-9651.45
-9653.98
-9656.95
-9660.34
-9664.15
-9668.36
-9672.95
-9677.9
-9683.2
-9688.83
-9694.76
-9700.99
-9707.48
-9714.22
-9721.19
-9728.36
-9735.71
-9743.22
-9750.86
-9758.62
-9766.46
-9774.36
-9782.3
-9790.24
-9798.15
-9806
-9813.74
-9821.34
-9828.73
-9835.85
-9842.63
-9848.97
-9854.74
-9859.8
-9863.95
-9866.92
-9868.38
-9867.86
-9864.74
-9858.12
-9846.72
-9828.67
-9801.03
-9759.1
-9694.86
-9593.52
-9425.4
-9123.96
-8520.47
-7128.45
-7126.43
-8514.4
-9113.85
-9411.28
-9575.42
-9672.81
-9733.15
-9771.23
-9795.1
-9809.47
-9817.27
-9820.41
-9820.18
-9817.48
-9812.95
-9807.07
-9800.19
-9792.59
-9784.46
-9775.99
-9767.29
-9758.48
-9749.63
-9740.83
-9732.14
-9723.59
-9715.25
-9707.15
-9699.32
-9691.79
-9684.6
-9677.76
-9671.31
-9665.25
-9659.61
-9654.41
-9649.66
-9645.37
-9641.56
-9638.23
-9635.4
-9633.06
-9631.24
-9629.92
-9629.12
-9628.82
-9629.04
-9629.76
-9630.98
-9632.7
-9634.9
-9637.57
-9640.71
-9644.3
-9648.33
-9652.78
-9657.63
-9662.87
-9668.47
-9674.42
-9680.7
-9687.28
-9694.15
-9701.27
-9708.64
-9716.22
-9724
-9731.94
-9740.02
-9748.22
-9756.52
-9764.88
-9773.27
-9781.67
-9790.05
-9798.36
-9806.57
-9814.62
-9822.47
-9830.04
-9837.26
-9844.04
-9850.24
-9855.71
-9860.25
-9863.61
-9865.44
-9865.27
-9862.48
-9856.17
-9845.07
-9827.28
-9799.88
-9758.17
-9694.12
-9592.95
-9424.98
-9123.67
-8520.3
-7128.4
-7126.24
-8513.82
-9112.89
-9409.92
-9573.64
-9670.61
-9730.52
-9768.16
-9791.57
-9805.46
-9812.78
-9815.42
-9814.68
-9811.46
-9806.41
-9800
-9792.6
-9784.46
-9775.81
-9766.82
-9757.6
-9748.27
-9738.93
-9729.63
-9720.45
-9711.44
-9702.64
-9694.1
-9685.84
-9677.91
-9670.33
-9663.12
-9656.32
-9649.93
-9643.99
-9638.51
-9633.5
-9628.98
-9624.96
-9621.45
-9618.46
-9616
-9614.08
-9612.69
-9611.84
-9611.53
-9611.75
-9612.51
-9613.8
-9615.6
-9617.92
-9620.74
-9624.04
-9627.83
-9632.07
-9636.75
-9641.86
-9647.38
-9653.28
-9659.55
-9666.17
-9673.1
-9680.34
-9687.85
-9695.61
-9703.6
-9711.79
-9720.15
-9728.67
-9737.32
-9746.06
-9754.87
-9763.72
-9772.58
-9781.41
-9790.18
-9798.84
-9807.35
-9815.65
-9823.67
-9831.33
-9838.54
-9845.16
-9851.05
-9856
-9859.75
-9861.96
-9862.15
-9859.71
-9853.73
-9842.94
-9825.44
-9798.32
-9756.87
-9693.05
-9592.1
-9424.34
-9123.22
-8520.04
-7128.31
-7126.02
-8513.18
-9111.81
-9408.4
-9571.68
-9668.2
-9727.65
-9764.81
-9787.73
-9801.14
-9807.95
-9810.08
-9808.83
-9805.09
-9799.51
-9792.58
-9784.65
-9775.99
-9766.82
-9757.3
-9747.57
-9737.74
-9727.89
-9718.11
-9708.45
-9698.97
-9689.73
-9680.75
-9672.07
-9663.74
-9655.77
-9648.2
-9641.05
-9634.35
-9628.1
-9622.34
-9617.08
-9612.33
-9608.11
-9604.42
-9601.28
-9598.7
-9596.67
-9595.21
-9594.32
-9593.99
-9594.22
-9595.02
-9596.36
-9598.26
-9600.69
-9603.65
-9607.12
-9611.09
-9615.54
-9620.46
-9625.83
-9631.62
-9637.82
-9644.4
-9651.35
-9658.63
-9666.23
-9674.11
-9682.26
-9690.65
-9699.25
-9708.04
-9716.99
-9726.07
-9735.25
-9744.51
-9753.81
-9763.11
-9772.4
-9781.62
-9790.73
-9799.69
-9808.44
-9816.9
-9825
-9832.63
-9839.68
-9845.98
-9851.34
-9855.49
-9858.08
-9858.65
-9856.56
-9850.93
-9840.47
-9823.28
-9796.46
-9755.29
-9691.74
-9591.05
-9423.54
-9122.65
-8519.7
-7128.2
-7125.79
-8512.49
-9110.66
-9406.79
-9569.6
-9665.63
-9724.6
-9761.27
-9783.7
-9796.6
-9802.9
-9804.52
-9802.74
-9798.48
-9792.38
-9784.93
-9776.47
-9767.29
-9757.6
-9747.57
-9737.33
-9727
-9716.66
-9706.4
-9696.27
-9686.34
-9676.64
-9667.24
-9658.15
-9649.42
-9641.07
-9633.15
-9625.66
-9618.63
-9612.1
-9606.06
-9600.55
-9595.58
-9591.15
-9587.29
-9584
-9581.29
-9579.17
-9577.64
-9576.7
-9576.35
-9576.59
-9577.42
-9578.83
-9580.81
-9583.36
-9586.45
-9590.09
-9594.24
-9598.9
-9604.05
-9609.67
-9615.73
-9622.22
-9629.11
-9636.38
-9644.01
-9651.96
-9660.22
-9668.75
-9677.54
-9686.54
-9695.74
-9705.11
-9714.62
-9724.23
-9733.93
-9743.67
-9753.42
-9763.15
-9772.82
-9782.38
-9791.78
-9800.96
-9809.86
-9818.39
-9826.46
-9833.92
-9840.64
-9846.4
-9850.94
-9853.92
-9854.87
-9853.14
-9847.86
-9837.74
-9820.89
-9794.38
-9753.52
-9690.27
-9589.86
-9422.62
-9122
-8519.31
-7128.07
-7125.55
-8511.77
-9109.46
-9405.11
-9567.43
-9662.98
-9721.45
-9757.62
-9779.54
-9791.93
-9797.72
-9798.82
-9796.53
-9791.74
-9785.13
-9777.15
-9768.17
-9758.48
-9748.27
-9737.74
-9727
-9716.17
-9705.35
-9694.62
-9684.03
-9673.64
-9663.52
-9653.69
-9644.19
-9635.07
-9626.36
-9618.08
-9610.26
-9602.92
-9596.09
-9589.79
-9584.03
-9578.84
-9574.22
-9570.18
-9566.74
-9563.91
-9561.7
-9560.09
-9559.11
-9558.74
-9559
-9559.86
-9561.33
-9563.39
-9566.05
-9569.28
-9573.07
-9577.4
-9582.27
-9587.64
-9593.51
-9599.84
-9606.61
-9613.81
-9621.4
-9629.36
-9637.66
-9646.28
-9655.19
-9664.36
-9673.76
-9683.37
-9693.15
-9703.08
-9713.12
-9723.25
-9733.42
-9743.61
-9753.78
-9763.88
-9773.88
-9783.72
-9793.33
-9802.66
-9811.62
-9820.11
-9827.99
-9835.11
-9841.28
-9846.21
-9849.58
-9850.9
-9849.55
-9844.62
-9834.85
-9818.34
-9792.16
-9751.62
-9688.67
-9588.57
-9421.62
-9121.3
-8518.89
-7127.93
-7125.31
-8511.04
-9108.24
-9403.39
-9565.21
-9660.26
-9718.23
-9753.9
-9775.32
-9787.2
-9792.47
-9793.06
-9790.25
-9784.95
-9777.82
-9769.32
-9759.84
-9749.63
-9738.93
-9727.89
-9716.66
-9705.35
-9694.06
-9682.86
-9671.82
-9660.99
-9650.44
-9640.19
-9630.3
-9620.8
-9611.72
-9603.1
-9594.95
-9587.31
-9580.2
-9573.63
-9567.63
-9562.22
-9557.4
-9553.2
-9549.62
-9546.67
-9544.35
-9542.68
-9541.65
-9541.27
-9541.53
-9542.42
-9543.95
-9546.1
-9548.86
-9552.22
-9556.17
-9560.68
-9565.75
-9571.34
-9577.45
-9584.04
-9591.09
-9598.58
-9606.49
-9614.77
-9623.42
-9632.4
-9641.68
-9651.23
-9661.02
-9671.02
-9681.21
-9691.55
-9702.01
-9712.56
-9723.15
-9733.77
-9744.37
-9754.9
-9765.33
-9775.59
-9785.64
-9795.39
-9804.76
-9813.66
-9821.96
-9829.49
-9836.05
-9841.37
-9845.12
-9846.82
-9845.84
-9841.27
-9831.85
-9815.68
-9789.84
-9749.62
-9687
-9587.21
-9420.57
-9120.55
-8518.44
-7127.78
-7125.06
-8510.3
-9107
-9401.66
-9562.98
-9657.53
-9715
-9750.17
-9771.08
-9782.45
-9787.22
-9787.29
-9783.97
-9778.17
-9770.52
-9761.53
-9751.54
-9740.83
-9729.63
-9718.11
-9706.4
-9694.62
-9682.86
-9671.2
-9659.72
-9648.46
-9637.49
-9626.84
-9616.56
-9606.69
-9597.25
-9588.29
-9579.82
-9571.88
-9564.49
-9557.67
-9551.43
-9545.81
-9540.8
-9536.43
-9532.71
-9529.64
-9527.23
-9525.49
-9524.42
-9524.02
-9524.29
-9525.21
-9526.8
-9529.03
-9531.89
-9535.38
-9539.48
-9544.17
-9549.43
-9555.24
-9561.58
-9568.42
-9575.75
-9583.53
-9591.74
-9600.35
-9609.33
-9618.65
-9628.29
-9638.21
-9648.38
-9658.78
-9669.36
-9680.1
-9690.97
-9701.93
-9712.94
-9723.98
-9735
-9745.95
-9756.79
-9767.48
-9777.94
-9788.1
-9797.89
-9807.2
-9815.89
-9823.82
-9830.77
-9836.49
-9840.61
-9842.69
-9842.07
-9837.86
-9828.8
-9812.97
-9787.46
-9747.58
-9685.28
-9585.81
-9419.49
-9119.78
-8517.98
-7127.63
-7124.81
-8509.56
-9105.77
-9399.93
-9560.76
-9654.81
-9711.79
-9746.45
-9766.86
-9777.73
-9782
-9781.57
-9777.75
-9771.44
-9763.3
-9753.81
-9743.33
-9732.14
-9720.45
-9708.45
-9696.27
-9684.03
-9671.82
-9659.72
-9647.8
-9636.12
-9624.74
-9613.7
-9603.04
-9592.8
-9583.02
-9573.73
-9564.95
-9556.72
-9549.05
-9541.98
-9535.52
-9529.68
-9524.49
-9519.96
-9516.1
-9512.91
-9510.41
-9508.61
-9507.49
-9507.07
-9507.35
-9508.31
-9509.94
-9512.25
-9515.22
-9518.83
-9523.08
-9527.93
-9533.38
-9539.4
-9545.97
-9553.06
-9560.66
-9568.72
-9577.23
-9586.15
-9595.46
-9605.12
-9615.11
-9625.39
-9635.93
-9646.71
-9657.68
-9668.81
-9680.08
-9691.44
-9702.86
-9714.3
-9725.72
-9737.09
-9748.34
-9759.43
-9770.3
-9780.87
-9791.06
-9800.77
-9809.86
-9818.17
-9825.51
-9831.6
-9836.1
-9838.54
-9838.29
-9834.44
-9825.72
-9810.23
-9785.07
-9745.51
-9683.54
-9584.4
-9418.39
-9119
-8517.51
-7127.47
-7124.57
-8508.83
-9104.55
-9398.22
-9558.56
-9652.13
-9708.61
-9742.78
-9762.7
-9773.08
-9776.85
-9775.93
-9771.62
-9764.83
-9756.2
-9746.22
-9735.26
-9723.59
-9711.44
-9698.97
-9686.34
-9673.64
-9660.99
-9648.46
-9636.12
-9624.04
-9612.26
-9600.83
-9589.81
-9579.22
-9569.1
-9559.48
-9550.4
-9541.89
-9533.96
-9526.64
-9519.95
-9513.91
-9508.54
-9503.85
-9499.85
-9496.55
-9493.97
-9492.1
-9490.94
-9490.5
-9490.78
-9491.77
-9493.46
-9495.84
-9498.91
-9502.65
-9507.03
-9512.05
-9517.68
-9523.91
-9530.7
-9538.03
-9545.88
-9554.22
-9563.02
-9572.24
-9581.87
-9591.86
-9602.19
-9612.83
-9623.73
-9634.87
-9646.22
-9657.73
-9669.38
-9681.13
-9692.95
-9704.79
-9716.61
-9728.37
-9740.02
-9751.51
-9762.78
-9773.74
-9784.32
-9794.42
-9803.89
-9812.59
-9820.3
-9826.76
-9831.63
-9834.43
-9834.53
-9831.03
-9822.66
-9807.51
-9782.68
-9743.45
-9681.81
-9582.98
-9417.3
-9118.22
-8517.05
-7127.31
-7124.33
-8508.11
-9103.35
-9396.54
-9556.41
-9649.49
-9705.49
-9739.18
-9758.62
-9768.52
-9771.81
-9770.42
-9765.63
-9758.36
-9749.25
-9738.81
-9727.38
-9715.25
-9702.64
-9689.73
-9676.64
-9663.52
-9650.44
-9637.49
-9624.74
-9612.26
-9600.09
-9588.3
-9576.91
-9565.98
-9555.53
-9545.61
-9536.24
-9527.44
-9519.26
-9511.7
-9504.79
-9498.56
-9493.01
-9488.17
-9484.04
-9480.63
-9477.96
-9476.02
-9474.83
-9474.37
-9474.65
-9475.67
-9477.41
-9479.87
-9483.03
-9486.88
-9491.4
-9496.58
-9502.39
-9508.81
-9515.82
-9523.39
-9531.49
-9540.09
-9549.17
-9558.69
-9568.62
-9578.94
-9589.6
-9600.57
-9611.82
-9623.32
-9635.03
-9646.91
-9658.94
-9671.07
-9683.27
-9695.49
-9707.7
-9719.85
-9731.89
-9743.76
-9755.41
-9766.76
-9777.72
-9788.19
-9798.03
-9807.1
-9815.18
-9822
-9827.23
-9830.38
-9830.82
-9827.67
-9819.63
-9804.82
-9780.31
-9741.41
-9680.09
-9581.58
-9416.21
-9117.44
-8516.58
-7127.16
-7124.1
-8507.41
-9102.18
-9394.91
-9554.3
-9646.92
-9702.45
-9735.68
-9754.65
-9764.08
-9766.91
-9765.05
-9759.8
-9752.06
-9742.5
-9731.6
-9719.72
-9707.15
-9694.1
-9680.75
-9667.24
-9653.69
-9640.19
-9626.84
-9613.7
-9600.83
-9588.3
-9576.14
-9564.41
-9553.15
-9542.38
-9532.16
-9522.5
-9513.44
-9505.01
-9497.22
-9490.1
-9483.68
-9477.96
-9472.97
-9468.71
-9465.2
-9462.44
-9460.44
-9459.21
-9458.73
-9459.02
-9460.06
-9461.85
-9464.38
-9467.63
-9471.6
-9476.25
-9481.58
-9487.56
-9494.18
-9501.39
-9509.18
-9517.52
-9526.38
-9535.73
-9545.54
-9555.77
-9566.39
-9577.37
-9588.67
-9600.26
-9612.1
-9624.16
-9636.4
-9648.79
-9661.29
-9673.85
-9686.45
-9699.03
-9711.55
-9723.96
-9736.21
-9748.23
-9759.95
-9771.28
-9782.11
-9792.32
-9801.75
-9810.18
-9817.35
-9822.92
-9826.42
-9827.2
-9824.37
-9816.67
-9802.18
-9777.99
-9739.41
-9678.4
-9580.2
-9415.14
-9116.68
-8516.13
-7127.01
-7123.87
-8506.73
-9101.05
-9393.32
-9552.27
-9644.43
-9699.51
-9732.28
-9750.8
-9759.78
-9762.16
-9759.85
-9754.16
-9745.98
-9735.98
-9724.64
-9712.32
-9699.32
-9685.84
-9672.07
-9658.15
-9644.19
-9630.3
-9616.56
-9603.04
-9589.81
-9576.91
-9564.41
-9552.35
-9540.76
-9529.7
-9519.18
-9509.25
-9499.93
-9491.26
-9483.25
-9475.93
-9469.32
-9463.44
-9458.3
-9453.92
-9450.31
-9447.47
-9445.41
-9444.13
-9443.64
-9443.93
-9445
-9446.84
-9449.43
-9452.77
-9456.84
-9461.63
-9467.1
-9473.25
-9480.04
-9487.46
-9495.47
-9504.04
-9513.15
-9522.76
-9532.84
-9543.35
-9554.27
-9565.55
-9577.17
-9589.08
-9601.26
-9613.66
-9626.24
-9638.98
-9651.83
-9664.75
-9677.7
-9690.64
-9703.52
-9716.3
-9728.9
-9741.28
-9753.35
-9765.04
-9776.22
-9786.78
-9796.55
-9805.32
-9812.84
-9818.74
-9822.56
-9823.67
-9821.17
-9813.78
-9799.61
-9775.74
-9737.46
-9676.76
-9578.86
-9414.1
-9115.94
-8515.68
-7126.86
-7123.65
-8506.07
-9099.96
-9391.8
-9550.31
-9642.03
-9696.68
-9729.02
-9747.1
-9755.65
-9757.6
-9754.86
-9748.73
-9740.13
-9729.7
-9717.94
-9705.21
-9691.79
-9677.91
-9663.74
-9649.42
-9635.07
-9620.8
-9606.69
-9592.8
-9579.22
-9565.98
-9553.15
-9540.76
-9528.87
-9517.51
-9506.72
-9496.53
-9486.96
-9478.06
-9469.84
-9462.32
-9455.54
-9449.5
-9444.22
-9439.72
-9436.01
-9433.09
-9430.97
-9429.66
-9429.15
-9429.44
-9430.54
-9432.42
-9435.07
-9438.5
-9442.67
-9447.58
-9453.19
-9459.5
-9466.47
-9474.07
-9482.29
-9491.08
-9500.42
-9510.28
-9520.62
-9531.41
-9542.62
-9554.19
-9566.11
-9578.34
-9590.83
-9603.56
-9616.47
-9629.54
-9642.73
-9655.99
-9669.28
-9682.57
-9695.79
-9708.91
-9721.86
-9734.58
-9747
-9759.02
-9770.54
-9781.44
-9791.54
-9800.64
-9808.48
-9814.7
-9818.84
-9820.27
-9818.08
-9811
-9797.13
-9773.55
-9735.58
-9675.17
-9577.56
-9413.09
-9115.22
-8515.25
-7126.72
-7123.44
-8505.45
-9098.92
-9390.34
-9548.43
-9639.74
-9693.97
-9725.89
-9743.56
-9751.69
-9753.23
-9750.08
-9743.54
-9734.53
-9723.7
-9711.54
-9698.41
-9684.6
-9670.33
-9655.77
-9641.07
-9626.36
-9611.72
-9597.25
-9583.02
-9569.1
-9555.53
-9542.38
-9529.7
-9517.51
-9505.87
-9494.82
-9484.37
-9474.57
-9465.45
-9457.02
-9449.32
-9442.37
-9436.18
-9430.77
-9426.15
-9422.34
-9419.35
-9417.17
-9415.83
-9415.3
-9415.6
-9416.71
-9418.63
-9421.35
-9424.85
-9429.12
-9434.14
-9439.89
-9446.35
-9453.48
-9461.27
-9469.68
-9478.69
-9488.26
-9498.35
-9508.95
-9519.99
-9531.47
-9543.33
-9555.54
-9568.06
-9580.85
-9593.89
-9607.12
-9620.51
-9634.01
-9647.6
-9661.22
-9674.83
-9688.39
-9701.83
-9715.11
-9728.16
-9740.91
-9753.25
-9765.1
-9776.31
-9786.73
-9796.15
-9804.29
-9810.83
-9815.27
-9817
-9815.1
-9808.32
-9794.74
-9771.46
-9733.76
-9673.64
-9576.32
-9412.12
-9114.53
-8514.84
-7126.58
-7123.25
-8504.85
-9097.92
-9388.95
-9546.64
-9637.56
-9691.39
-9722.92
-9740.19
-9747.93
-9749.08
-9745.53
-9738.61
-9729.21
-9718
-9705.46
-9691.95
-9677.76
-9663.12
-9648.2
-9633.15
-9618.08
-9603.1
-9588.29
-9573.73
-9559.48
-9545.61
-9532.16
-9519.18
-9506.72
-9494.82
-9483.5
-9472.82
-9462.8
-9453.46
-9444.84
-9436.97
-9429.85
-9423.52
-9417.98
-9413.26
-9409.36
-9406.29
-9404.06
-9402.68
-9402.13
-9402.43
-9403.57
-9405.53
-9408.3
-9411.88
-9416.24
-9421.37
-9427.25
-9433.84
-9441.14
-9449.1
-9457.7
-9466.9
-9476.68
-9487.01
-9497.83
-9509.13
-9520.86
-9532.99
-9545.47
-9558.27
-9571.36
-9584.68
-9598.21
-9611.9
-9625.72
-9639.61
-9653.54
-9667.47
-9681.34
-9695.09
-9708.69
-9722.05
-9735.1
-9747.76
-9759.91
-9771.42
-9782.14
-9791.86
-9800.3
-9807.13
-9811.86
-9813.87
-9812.27
-9805.76
-9792.46
-9769.45
-9732.03
-9672.18
-9575.12
-9411.2
-9113.87
-8514.44
-7126.45
-7123.06
-8504.29
-9096.99
-9387.64
-9544.96
-9635.5
-9688.95
-9720.11
-9737.01
-9744.38
-9745.15
-9741.24
-9733.95
-9724.19
-9712.61
-9699.71
-9685.85
-9671.31
-9656.32
-9641.05
-9625.66
-9610.26
-9594.95
-9579.82
-9564.95
-9550.4
-9536.24
-9522.5
-9509.25
-9496.53
-9484.37
-9472.82
-9461.91
-9451.68
-9442.14
-9433.34
-9425.3
-9418.03
-9411.56
-9405.9
-9401.07
-9397.09
-9393.95
-9391.67
-9390.25
-9389.69
-9389.99
-9391.14
-9393.14
-9395.97
-9399.61
-9404.06
-9409.3
-9415.29
-9422.02
-9429.46
-9437.59
-9446.36
-9455.76
-9465.74
-9476.27
-9487.32
-9498.86
-9510.83
-9523.2
-9535.95
-9549.02
-9562.37
-9575.97
-9589.79
-9603.76
-9617.87
-9632.05
-9646.28
-9660.49
-9674.66
-9688.71
-9702.6
-9716.25
-9729.6
-9742.55
-9754.99
-9766.79
-9777.8
-9787.8
-9796.52
-9803.62
-9808.63
-9810.91
-9809.57
-9803.33
-9790.3
-9767.55
-9730.39
-9670.79
-9573.99
-9410.32
-9113.24
-8514.06
-7126.32
-7122.88
-8503.76
-9096.11
-9386.4
-9543.37
-9633.56