/*--------------------------------*- C++ -*----------------------------------*\
  =========                 |
  \\      /  F ield         | OpenFOAM: The Open Source CFD Toolbox
   \\    /   O peration     | Website:  https://openfoam.org
    \\  /    A nd           | Version:  9
     \\/     M anipulation  |
\*---------------------------------------------------------------------------*/
FoamFile
{
    format      ascii;
    class       volScalarField;
    location    "0.5";
    object      gradTx;
}
// * * * * * * * * * * * * * * * * * * * * * * * * * * * * * * * * * * * * * //

dimensions      [0 -1 0 1 0 0 0];

internalField   nonuniform List<scalar> 
200000
(
5131.68
2405.6
1481.75
1073.59
851.75
713.118
618.192
549.019
496.296
454.707
420.99
393.025
369.371
349.011
331.206
315.404
301.181
288.208
276.222
265.011
254.404
244.257
234.452
224.89
215.487
206.173
196.89
187.59
178.232
168.786
159.226
149.534
139.697
129.709
119.567
109.274
98.8369
88.2662
77.5762
66.7845
55.9113
44.9795
34.0139
23.0413
12.0898
1.1885
-9.6328
-20.344
-30.9151
-41.3165
-51.5194
-61.4962
-71.2207
-80.6684
-89.8171
-98.6468
-107.14
-115.283
-123.064
-130.475
-137.512
-144.174
-150.464
-156.39
-161.963
-167.199
-172.117
-176.742
-181.104
-185.237
-189.181
-192.979
-196.682
-200.349
-204.041
-207.83
-211.797
-216.032
-220.636
-225.729
-231.443
-237.937
-245.398
-254.048
-264.162
-276.078
-290.228
-307.172
-327.656
-352.702
-383.754
-422.936
-473.515
-540.807
-634.118
-771.403
-992.159
-1399.52
-2322.83
-5048.63
10360.7
6097.23
4142.91
3117.57
2511.07
2116.72
1841.41
1638.7
1483.24
1360.12
1260.03
1176.86
1106.39
1045.68
992.529
945.324
902.811
864.013
828.152
794.599
762.841
732.453
703.082
674.431
646.252
618.337
590.512
562.631
534.576
506.253
477.586
448.521
419.022
389.066
358.649
327.778
296.473
264.767
232.703
200.333
167.718
134.927
102.035
69.121
36.2701
3.5696
-28.891
-61.0216
-92.7319
-123.933
-154.539
-184.467
-213.638
-241.978
-269.422
-295.908
-321.386
-345.811
-369.151
-391.381
-412.489
-432.471
-451.338
-469.111
-485.825
-501.525
-516.273
-530.142
-543.22
-555.609
-567.428
-578.809
-589.905
-600.886
-611.941
-623.285
-635.157
-647.826
-661.599
-676.825
-693.907
-713.313
-735.6
-761.431
-791.617
-827.165
-869.35
-919.823
-980.775
-1055.2
-1147.29
-1263.19
-1412.22
-1609.29
-1879.75
-2270.06
-2873.32
-3896.23
-5848.94
-10111.6
13634.5
8855.79
6385.46
4962.87
4067.29
3461.79
3028.72
2704.91
2454.04
2253.98
2090.53
1954.19
1838.36
1738.34
1650.63
1572.61
1502.27
1438
1378.55
1322.89
1270.17
1219.7
1170.89
1123.26
1076.4
1029.96
983.66
937.258
890.557
843.401
795.668
747.266
698.135
648.241
597.573
546.146
493.995
441.173
387.752
333.82
279.478
224.842
170.035
115.192
60.4525
5.96318
-48.127
-101.668
-154.508
-206.501
-257.502
-307.373
-355.982
-403.207
-448.937
-493.073
-535.526
-576.226
-615.115
-652.155
-687.322
-720.613
-752.044
-781.651
-809.49
-835.639
-860.197
-883.287
-905.055
-925.672
-945.332
-964.258
-982.702
-1000.94
-1019.3
-1038.13
-1057.82
-1078.82
-1101.64
-1126.85
-1155.11
-1187.2
-1224.04
-1266.69
-1316.5
-1375.09
-1444.54
-1527.49
-1627.47
-1749.22
-1899.35
-2087.39
-2327.53
-2641.95
-3066.95
-3665.71
-4555.9
-5974.44
-8442.07
-13219.4
15985.4
11000.9
8265.78
6597.51
5497.67
4728.43
4164.88
3736.31
3400.25
3129.89
2907.56
2721.18
2562.24
2424.54
2303.51
2195.62
2098.18
2009.03
1926.45
1849.05
1775.67
1705.37
1637.34
1570.91
1505.51
1440.68
1376.02
1311.19
1245.93
1180.02
1113.28
1045.6
976.894
907.108
836.232
764.288
691.325
617.418
542.67
467.202
391.159
314.7
238
161.247
84.6381
8.37759
-67.3255
-142.26
-216.216
-288.986
-360.367
-430.167
-498.201
-564.298
-628.301
-690.072
-749.487
-806.446
-860.87
-912.702
-961.912
-1008.49
-1052.47
-1093.89
-1132.82
-1169.39
-1203.73
-1236
-1266.42
-1295.22
-1322.66
-1349.07
-1374.79
-1400.21
-1425.76
-1451.95
-1479.32
-1508.48
-1540.14
-1575.09
-1614.25
-1658.66
-1709.59
-1768.5
-1837.2
-1917.91
-2013.38
-2127.19
-2263.96
-2429.91
-2633.61
-2887.13
-3208.19
-3623.6
-4175.87
-4935.68
-6027.97
-7690.58
-10422
-15404.5
17825.7
12745.1
9865.4
8043.95
6802.51
5910.13
5242.21
4725.9
4315.97
3983.03
3707.21
3474.64
3275.39
3102.14
2949.37
2812.85
2689.27
2576
2470.91
2372.28
2278.66
2188.87
2101.9
2016.91
1933.2
1850.15
1767.28
1684.16
1600.46
1515.89
1430.25
1343.37
1255.15
1165.54
1074.52
982.108
888.381
793.435
697.4
600.435
502.725
404.476
305.913
207.279
108.828
10.8214
-86.4706
-182.777
-277.826
-371.351
-463.093
-552.802
-640.241
-725.19
-807.447
-886.833
-963.189
-1036.39
-1106.32
-1172.93
-1236.15
-1296
-1352.49
-1405.68
-1455.69
-1502.63
-1546.7
-1588.11
-1627.12
-1664.03
-1699.19
-1732.99
-1765.88
-1798.35
-1830.97
-1864.36
-1899.22
-1936.32
-1976.55
-2020.91
-2070.55
-2126.79
-2191.2
-2265.62
-2352.27
-2453.86
-2573.78
-2716.34
-2887.1
-3093.42
-3345.29
-3656.61
-4047.25
-4546.66
-5200.07
-6080.34
-7312.08
-9126.26
-12001.1
-17079.2
19348.2
14216.5
11252.4
9332.73
7992.8
7008.77
6258.82
5670.48
5197.79
4810.19
4486.63
4212.11
3975.72
3769.31
3586.66
3422.96
3274.4
3137.93
3011.09
2891.83
2778.48
2669.62
2564.08
2460.83
2359.05
2258.02
2157.13
2055.89
1953.89
1850.8
1746.36
1640.39
1532.76
1423.4
1312.31
1199.5
1085.08
969.151
851.882
733.47
614.138
494.142
373.758
253.28
133.021
13.3029
-105.546
-223.193
-339.306
-453.559
-565.634
-675.225
-782.043
-885.818
-986.303
-1083.28
-1176.55
-1265.96
-1351.38
-1432.72
-1509.93
-1583.01
-1651.97
-1716.91
-1777.93
-1835.2
-1888.95
-1939.43
-1986.95
-2031.89
-2074.67
-2115.75
-2155.69
-2195.07
-2234.58
-2274.97
-2317.07
-2361.82
-2410.29
-2463.65
-2523.29
-2590.78
-2667.94
-2756.96
-2860.41
-2981.45
-3123.98
-3292.9
-3494.49
-3736.95
-4031.27
-4392.45
-4841.59
-5409.29
-6141.51
-7110.76
-8438.84
-10349.6
-13307.8
-18436.5
20655.5
15493.8
12477.1
10492.3
9082.84
8030.5
7216.48
6569.63
6044.29
5609.6
5243.99
4931.84
4661.63
4424.63
4214.13
4024.84
3852.58
3693.96
3546.2
3407.03
3274.53
3147.1
3023.38
2902.24
2782.7
2663.94
2545.26
2426.1
2305.98
2184.52
2061.43
1936.49
1809.56
1680.56
1549.48
1416.37
1281.32
1144.49
1006.05
866.253
725.358
583.669
441.513
299.24
157.219
15.831
-124.534
-263.483
-400.623
-535.567
-667.94
-797.379
-923.542
-1046.11
-1164.79
-1279.32
-1389.47
-1495.06
-1595.93
-1691.97
-1783.13
-1869.39
-1950.78
-2027.4
-2099.39
-2166.93
-2230.28
-2289.76
-2345.71
-2398.58
-2448.86
-2497.1
-2543.93
-2590.05
-2636.25
-2683.4
-2732.47
-2784.55
-2840.85
-2902.76
-2971.84
-3049.88
-3138.97
-3241.56
-3360.56
-3499.47
-3662.61
-3855.34
-4084.45
-4358.75
-4689.83
-5093.32
-5590.87
-6213.34
-7006.43
-8041.31
-9436.76
-11411.1
-14420.7
-19579
21807.8
16627
13575.8
11546.2
10086.7
8983.04
8118.93
7424.77
6855.55
6380.64
5978.32
5632.74
5332
5067.03
4830.75
4617.56
4422.97
4243.31
4075.57
3917.24
3766.24
3620.78
3479.36
3340.72
3203.76
3067.57
2931.37
2794.51
2656.48
2516.83
2375.25
2231.48
2085.38
1936.86
1785.92
1632.6
1477.02
1319.36
1159.84
998.727
836.339
673.022
509.156
345.146
181.419
18.4143
-143.416
-303.618
-461.738
-617.329
-769.956
-919.201
-1064.67
-1205.99
-1342.82
-1474.86
-1601.86
-1723.57
-1839.85
-1950.55
-2055.6
-2155
-2248.77
-2337.01
-2419.9
-2497.64
-2570.52
-2638.89
-2703.18
-2763.87
-2821.52
-2876.76
-2930.32
-2982.98
-3035.64
-3089.28
-3145.01
-3204.04
-3267.76
-3337.69
-3415.59
-3503.45
-3603.57
-3718.65
-3851.85
-4006.97
-4188.65
-4402.59
-4655.96
-4957.93
-5320.43
-5759.39
-6296.57
-6962.64
-7802.62
-8886.19
-10329.5
-12347.1
-15390.2
-20566.9
22843.2
17649.6
14574.7
12513.3
11017
9874.23
8970.77
8238.3
7632.63
7123.51
6689.36
6314.24
5986.14
5695.75
5435.78
5200.39
4984.87
4785.33
4598.57
4421.91
4253.09
4090.19
3931.58
3775.87
3621.87
3468.57
3315.14
3160.85
3005.12
2847.49
2687.6
2525.18
2360.06
2192.16
2021.47
1848.06
1672.06
1493.68
1313.16
1130.83
947.029
762.163
576.662
390.985
205.618
21.0616
-162.173
-343.569
-522.612
-698.794
-871.621
-1040.62
-1205.34
-1365.36
-1520.29
-1669.8
-1813.58
-1951.38
-2083.01
-2208.31
-2327.21
-2439.67
-2545.76
-2645.56
-2739.27
-2827.12
-2909.44
-2986.62
-3059.13
-3127.5
-3192.38
-3254.47
-3314.56
-3373.54
-3432.41
-3492.26
-3554.3
-3619.9
-3690.55
-3767.96
-3854.03
-3950.92
-4061.14
-4187.57
-4333.6
-4503.27
-4701.43
-4934.06
-5208.55
-5534.29
-5923.38
-6391.8
-6961.2
-7661.87
-8538.03
-9658.02
-11136
-13183.8
-16249.6
-21438.6
23787.3
18584.8
15492.9
13408.1
11884.3
10711.3
9776.7
9013.11
8377.14
7838.99
7377.3
6976.23
6623.7
6310.33
6028.68
5772.77
5537.71
5319.47
5114.69
4920.54
4734.62
4554.89
4379.62
4207.3
4036.67
3866.63
3696.27
3524.83
3351.66
3176.28
2998.28
2817.38
2633.42
2446.29
2256
2062.62
1866.33
1667.34
1465.94
1262.48
1057.37
851.049
644
436.74
229.814
23.7817
-180.783
-383.302
-583.199
-779.906
-972.869
-1161.56
-1345.47
-1524.13
-1697.11
-1864.02
-2024.53
-2178.35
-2325.26
-2465.1
-2597.77
-2723.25
-2841.57
-2952.86
-3057.3
-3155.18
-3246.83
-3332.7
-3413.3
-3489.23
-3561.18
-3629.93
-3696.36
-3761.43
-3826.24
-3891.98
-3959.99
-4031.73
-4108.84
-4193.14
-4286.7
-4391.83
-4511.19
-4647.83
-4805.33
-4987.89
-5200.56
-5449.46
-5742.16
-6088.13
-6499.52
-6992.26
-7587.75
-8315.84
-9220.02
-10367.5
-11871
-13940.5
-17022.2
-22219.6
24658.1
19448.9
16344.5
14242.3
12697.3
11500.8
10541.2
9752.21
9090.98
8528.18
8042.7
7618.85
7244.59
6910.5
6609.1
6334.28
6081.05
5845.28
5623.46
5412.67
5210.39
5014.48
4823.09
4634.65
4447.81
4261.4
4074.46
3886.15
3695.82
3502.92
3307.04
3107.88
2905.25
2699.07
2489.33
2276.15
2059.7
1840.23
1618.08
1393.62
1167.3
939.632
711.136
482.392
254.001
26.5836
-199.224
-422.782
-643.452
-860.604
-1073.63
-1281.93
-1484.95
-1682.18
-1873.13
-2057.38
-2234.55
-2404.32
-2566.45
-2720.76
-2867.13
-3005.53
-3136.01
-3258.69
-3373.78
-3481.57
-3582.46
-3676.9
-3765.46
-3848.79
-3927.64
-4002.87
-4075.41
-4146.33
-4216.8
-4288.12
-4361.71
-4439.16
-4522.22
-4612.84
-4713.2
-4825.76
-4953.31
-5099.05
-5266.69
-5460.57
-5685.87
-5948.81
-6257.05
-6620.1
-7050.08
-7562.77
-8179.33
-8929.18
-9855.14
-11023.6
-12546.1
-14631.4
-17724.6
-22928.1
25468.4
20254.3
17140.4
15024.8
13463.3
12248.1
11268.4
10458.5
9776.12
9192.34
8686.31
8242.48
7848.9
7496.19
7176.81
6884.62
6614.55
6362.37
6124.5
5897.91
5680
5468.55
5261.61
5057.55
4854.94
4652.56
4449.38
4244.54
4037.33
3827.18
3613.65
3396.44
3175.35
2950.31
2721.31
2488.49
2252.04
2012.24
1769.47
1524.14
1276.76
1027.86
778.034
527.919
278.172
29.4763
-217.472
-461.969
-703.315
-940.819
-1173.81
-1401.64
-1623.69
-1839.4
-2048.24
-2249.74
-2443.48
-2629.12
-2806.39
-2975.07
-3135.06
-3286.3
-3428.84
-3562.82
-3688.45
-3806.06
-3916.05
-4018.93
-4115.31
-4205.88
-4291.47
-4372.97
-4451.41
-4527.92
-4603.76
-4680.32
-4759.12
-4841.85
-4930.35
-5026.7
-5133.19
-5252.39
-5387.21
-5540.96
-5717.46
-5921.18
-6157.36
-6432.31
-6753.7
-7131.06
-7576.43
-8105.43
-8738.97
-9506.07
-10449
-11633.6
-13170.5
-15267.6
-18369.2
-23577.2
26227.9
21010.1
17888.8
15762.8
14188.2
12958
11961.8
11134.6
10434.5
9832.78
9308.96
8847.6
8436.88
8067.42
7731.71
7423.58
7137.91
6870.41
6617.44
6375.89
6143.09
5916.73
5694.82
5475.64
5257.72
5039.77
4820.72
4599.68
4375.89
4148.76
3917.85
3682.83
3443.51
3199.81
2951.75
2699.46
2443.19
2183.23
1920
1653.96
1385.65
1115.66
844.65
573.296
302.321
32.4687
-235.501
-500.821
-762.731
-1020.48
-1273.33
-1520.58
-1761.56
-1995.65
-2222.28
-2440.94
-2651.16
-2852.57
-3044.88
-3227.85
-3401.35
-3565.33
-3719.83
-3865
-4001.07
-4128.37
-4247.34
-4358.52
-4462.57
-4560.22
-4652.35
-4739.92
-4824.02
-4905.87
-4986.79
-5068.26
-5151.89
-5239.45
-5332.91
-5434.41
-5546.36
-5671.43
-5812.62
-5973.36
-6157.54
-6369.7
-6615.16
-6900.28
-7232.72
-7621.98
-8080
-8622.27
-9269.46
-10050.3
-11006.5
-12203.5
-13751.4
-15857.5
-18965.4
-24176.6
26944.1
21723.3
18596.2
16461.9
14876.8
13634.4
12624.7
11783
11067.8
10450.8
9911.52
9434.77
9008.79
8624.29
8273.76
7951.01
7650.92
7369.14
7101.98
6846.28
6599.29
6358.67
6122.35
5888.57
5655.79
5422.69
5188.16
4951.25
4711.2
4467.4
4219.38
3966.8
3709.49
3447.35
3180.44
2908.9
2632.99
2353.07
2069.55
1782.97
1493.9
1202.99
910.937
618.493
326.436
35.5696
-253.283
-539.293
-821.636
-1099.5
-1372.08
-1638.64
-1898.43
-2150.79
-2395.1
-2630.79
-2857.39
-3074.47
-3281.7
-3478.85
-3665.76
-3842.37
-4008.72
-4164.97
-4311.34
-4448.21
-4576.02
-4695.37
-4806.92
-4911.48
-5009.96
-5103.4
-5192.93
-5279.85
-5365.56
-5451.6
-5539.68
-5631.66
-5729.57
-5835.66
-5952.43
-6082.63
-6229.36
-6396.11
-6586.86
-6806.2
-7059.51
-7353.14
-7694.77
-8093.84
-8562.22
-9115.23
-9773.35
-10565
-11531.7
-12738.4
-14294.7
-16407.5
-19520.2
-24733.9
27622.6
22399.4
19267.7
17126.6
15533
14280.5
13259.6
12405.7
11677.8
11047.5
10494.8
10004.5
9564.98
9166.95
8802.95
8466.82
8153.39
7858.3
7577.82
7308.74
7048.27
6794.01
6543.85
6295.98
6048.8
5800.98
5551.34
5298.94
5042.96
4782.79
4517.94
4248.09
3973.03
3692.7
3407.17
3116.6
2821.28
2521.58
2217.99
1911.05
1601.41
1289.75
976.841
663.479
350.505
38.7876
-270.79
-577.336
-879.962
-1177.79
-1469.97
-1755.69
-2034.16
-2304.65
-2566.51
-2819.12
-3061.96
-3294.58
-3516.63
-3727.83
-3928.03
-4117.15
-4295.23
-4462.41
-4618.97
-4765.26
-4901.78
-5029.13
-5148.03
-5259.32
-5363.97
-5463.05
-5557.79
-5649.52
-5739.72
-5830.01
-5922.17
-6018.13
-6120.03
-6230.18
-6351.15
-6485.79
-6637.27
-6809.13
-7005.43
-7230.8
-7490.65
-7791.34
-8140.53
-8547.63
-9024.4
-9586.07
-10252.9
-11053.2
-12028.1
-13242.2
-14805
-16923.1
-20039.4
-25254.9
28267.9
23042.7
19907.2
17760.6
16160
14899.1
13868.8
13004.6
12265.7
11624.1
11059.6
10557.4
10105.7
9695.53
9319.31
8970.9
8645.14
8337.66
8044.68
7762.97
7489.7
7222.41
6958.96
6697.5
6436.4
6174.27
5909.93
5642.39
5370.83
5094.61
4813.25
4526.4
4233.87
3935.62
3631.72
3322.36
3007.85
2688.62
2365.16
2038.08
1708.07
1375.88
1042.3
708.217
374.516
42.1309
-287.992
-614.898
-937.635
-1255.27
-1566.88
-1871.6
-2168.59
-2457.06
-2736.32
-3005.7
-3264.64
-3512.67
-3749.39
-3974.52
-4187.87
-4389.36
-4579.03
-4757.03
-4923.62
-5079.2
-5224.27
-5359.47
-5485.54
-5603.39
-5714
-5818.52
-5918.22
-6014.51
-6108.92
-6203.14
-6299.02
-6398.57
-6503.99
-6617.68
-6742.29
-6880.72
-7036.2
-7212.36
-7413.28
-7643.64
-7908.87
-8215.33
-8570.68
-8984.27
-9467.8
-10036.4
-10710.1
-11517.1
-12498.5
-13718.4
-15286.3
-17408.3
-20527.4
-25744.3
28883.4
23656.6
20518
18366.8
16760.4
15492.5
14454.2
13581.3
12833
12181.4
11606.7
11093.8
10631.4
10210.2
9822.84
9463.17
9126.02
8806.99
8502.29
8208.65
7923.22
7643.49
7367.31
7092.75
6818.19
6542.2
6263.56
5981.26
5694.47
5402.54
5104.97
4801.43
4491.73
4175.84
3853.84
3525.95
3192.52
2853.99
2510.91
2163.93
1813.79
1461.27
1107.26
752.667
398.452
45.6074
-304.857
-651.923
-994.577
-1331.82
-1662.68
-1986.22
-2301.55
-2607.84
-2904.32
-3190.31
-3465.2
-3728.48
-3979.72
-4218.62
-4444.97
-4658.69
-4859.8
-5048.46
-5224.95
-5389.66
-5543.12
-5686
-5819.09
-5943.29
-6059.68
-6169.43
-6273.86
-6374.45
-6472.78
-6570.62
-6669.88
-6772.64
-6881.16
-6997.91
-7125.61
-7267.22
-7426.04
-7605.73
-7810.44
-8044.86
-8314.44
-8625.56
-8985.85
-9404.62
-9893.51
-10467.5
-11146.7
-11959
-12945.3
-14169.8
-15741.5
-17866.6
-20987.8
-26205.8
29471.9
24243.8
21102.6
18947.6
17336.2
16062.4
15017.3
14136.9
13380.5
12720.3
12136.5
11614.2
11142.1
10711
10313.5
9943.53
9595.84
9266.05
8950.36
8645.47
8348.49
8056.91
7768.51
7481.37
7193.8
6904.37
6611.84
6315.17
6013.52
5706.22
5392.78
5072.87
4746.31
4413.07
4073.27
3727.14
3375.05
3017.5
2655.07
2288.45
1918.43
1545.85
1171.64
796.785
422.294
49.2244
-321.352
-688.354
-1050.71
-1407.35
-1757.24
-2099.4
-2432.87
-2756.78
-3070.31
-3372.72
-3663.37
-3941.72
-4207.31
-4459.82
-4699.01
-4924.79
-5137.19
-5336.35
-5522.57
-5696.25
-5857.94
-6008.34
-6148.25
-6278.64
-6400.6
-6515.37
-6624.31
-6728.95
-6830.94
-6932.1
-7034.41
-7140.01
-7251.22
-7370.59
-7500.88
-7645.12
-7806.66
-7989.2
-8196.94
-8434.59
-8707.63
-9022.42
-9386.6
-9809.43
-10302.5
-10880.8
-11564.2
-12380.6
-13370.7
-14598.6
-16173.3
-18300.7
-21423.5
-26642.4
30035.6
24806.4
21663
19504.8
17889.3
16610.5
15559.5
14672.6
13909.1
13241.4
12649.6
12119
11638.1
11198.1
10791.4
10411.9
10054.4
9714.6
9388.6
9073.09
8765.16
8462.27
8162.18
7862.93
7562.83
7260.39
6954.37
6643.72
6327.58
6005.29
5676.33
5340.39
4997.29
4647.03
4289.72
3925.66
3555.22
3178.94
2797.45
2411.48
2021.86
1629.5
1235.38
840.523
446.022
52.9886
-337.443
-724.129
-1105.93
-1481.73
-1850.42
-2210.97
-2562.36
-2903.67
-3234.03
-3552.66
-3858.88
-4152.1
-4431.86
-4697.78
-4949.63
-5187.31
-5410.82
-5620.32
-5816.09
-5998.57
-6168.33
-6326.06
-6472.62
-6609.01
-6736.35
-6855.92
-6969.15
-7077.6
-7182.99
-7287.2
-7392.24
-7500.34
-7613.87
-7735.44
-7867.86
-8014.22
-8177.92
-8362.71
-8572.8
-8812.95
-9088.65
-9406.28
-9773.43
-10199.4
-10695.7
-11277.2
-11963.8
-12783.3
-13776.4
-15006.9
-16583.8
-18712.9
-21837
-27056.5
30576.2
25346.1
22200.9
20040
18420.9
17137.7
16081.8
15189.3
14419.6
13745.2
13146.3
12608.2
12119.6
11671.4
11256.2
10868
10501.5
10152.4
9816.69
9491.16
9172.85
8859.19
8547.91
8237.04
7924.84
7609.84
7290.75
6966.52
6636.28
6299.35
5955.24
5603.62
5244.33
4877.38
4502.92
4121.25
3732.79
3338.1
2937.87
2532.86
2123.95
1712.12
1298.38
883.828
469.613
56.9057
-353.096
-759.186
-1160.16
-1554.85
-1942.08
-2320.76
-2689.82
-3048.28
-3395.24
-3729.86
-4051.42
-4359.31
-4653.02
-4932.16
-5196.48
-5445.85
-5680.29
-5899.94
-6105.09
-6296.2
-6473.83
-6638.72
-6791.75
-6933.94
-7066.47
-7190.65
-7307.95
-7419.98
-7528.53
-7635.5
-7743
-7853.27
-7968.78
-8092.16
-8226.3
-8374.33
-8539.68
-8726.16
-8938.01
-9180.03
-9457.7
-9777.42
-10146.8
-10575
-11073.7
-11657.6
-12346.6
-13168.4
-14163.6
-15396.1
-16974.6
-19105.1
-22230
-27450
31095.2
25864.3
22717.4
20554.2
18932
17645.2
16584.9
15687.5
14912.4
14232.1
13626.9
13082.2
12586.5
12130.9
11708
11311.8
10936.9
10579
10234.3
9899.32
9571.17
9247.24
8925.27
8603.24
8279.41
7952.27
7620.53
7283.13
6939.18
6588.01
6229.12
5862.19
5487.09
5103.81
4712.55
4313.62
3907.49
3494.75
3076.11
2652.41
2224.56
1793.58
1360.56
926.645
493.041
60.981
-368.274
-793.457
-1213.31
-1626.58
-2032.06
-2428.58
-2815.04
-3190.39
-3553.68
-3904.03
-4240.7
-4563.01
-4870.44
-5162.58
-5439.16
-5700.02
-5945.18
-6174.78
-6389.13
-6588.67
-6773.99
-6945.86
-7105.18
-7252.99
-7390.5
-7519.09
-7640.25
-7755.65
-7867.11
-7976.6
-8086.28
-8198.44
-8315.6
-8440.46
-8575.93
-8725.21
-8891.77
-9079.46
-9292.55
-9535.87
-9814.91
-10136.1
-10507
-10936.9
-11437.2
-12022.8
-12713.6
-13537
-14533.7
-15767.6
-17347.3
-19478.7
-22604.3
-27824.5
31593.5
26361.9
23213.7
21048.4
19423.7
18133.6
17069.6
16167.9
15388
14702.5
14091.7
13540.9
13038.9
12576.6
12146.6
11742.9
11360.3
10994.3
10641
10297.2
9959.69
9626.01
9293.82
8961.09
8626.07
8287.23
7943.27
7593.11
7235.86
6870.84
6497.57
6115.73
5725.18
5325.97
4918.29
4502.49
4079.06
3648.64
3211.98
2769.95
2323.52
1873.77
1421.83
968.914
516.277
65.2185
-382.942
-826.876
-1265.26
-1696.79
-2120.19
-2534.25
-2937.79
-3329.73
-3709.07
-4074.88
-4426.38
-4762.86
-5083.77
-5388.66
-5677.25
-5949.39
-6205.05
-6444.41
-6667.74
-6875.52
-7068.35
-7247
-7412.41
-7565.65
-7707.97
-7840.76
-7965.58
-8084.13
-8198.29
-8310.07
-8421.67
-8535.46
-8653.98
-8779.99
-8916.46
-9066.62
-9234
-9422.48
-9636.35
-9880.48
-10160.4
-10482.5
-10854.4
-11285.3
-11786.7
-12373.5
-13065.3
-13889.8
-14887.6
-16122.4
-17702.9
-19834.9
-22961
-28181.4
32071.9
26839.7
23690.4
21523.4
19896.3
18603.4
17536.1
16630.6
15846.6
15156.4
14540.6
13984.4
13476.6
13008.2
12571.8
12161.3
11771.4
11397.8
11036.6
10684.3
10338
9995.02
9653.08
9310.12
8964.35
8614.25
8258.49
7895.99
7525.86
7147.42
6760.17
6363.82
5958.25
5543.5
5119.8
4687.53
4247.21
3799.51
3345.23
2885.28
2420.68
1952.56
1482.1
1010.57
539.292
69.621
-397.063
-859.372
-1315.92
-1765.35
-2206.32
-2637.56
-3057.86
-3466.06
-3861.13
-4242.1
-4608.13
-4958.49
-5292.6
-5609.99
-5910.35
-6193.51
-6459.46
-6708.34
-6940.45
-7156.26
-7356.39
-7541.63
-7712.94
-7871.42
-8018.35
-8155.17
-8283.45
-8404.96
-8521.6
-8635.45
-8748.75
-8863.91
-8983.54
-9110.42
-9247.59
-9398.31
-9566.16
-9755.04
-9969.31
-10213.8
-10494.1
-10816.7
-11189.1
-11620.6
-12122.6
-12710
-13402.5
-14227.7
-15226.1
-16461.4
-18042.4
-20174.8
-23301.1
-28521.8
32531
27298.3
24148
21979.5
20350.4
19055.1
17984.8
17076.1
16288.3
15594
14973.7
14412.6
13899.6
13425.6
12983.2
12566.4
12169.9
11789.2
11420.4
11060.3
10705.6
10353.8
10002.6
9649.83
9293.77
8932.83
8565.71
8191.31
7808.72
7417.27
7016.48
6606.05
6185.88
5756.02
5316.74
4868.43
4411.65
3947.11
3475.64
2998.2
2515.87
2029.8
1541.25
1051.55
562.053
74.1903
-410.602
-890.875
-1365.19
-1832.11
-2290.27
-2738.32
-3175
-3599.12
-4009.57
-4405.35
-4785.6
-5149.54
-5496.56
-5826.16
-6138.02
-6431.95
-6707.93
-6966.1
-7206.76
-7430.38
-7637.61
-7829.24
-8006.26
-8169.79
-8321.15
-8461.79
-8593.36
-8717.63
-8836.57
-8952.29
-9067.07
-9183.39
-9303.88
-9431.39
-9568.99
-9719.99
-9888.01
-10077
-10291.3
-10535.8
-10816.2
-11138.8
-11511.3
-11942.9
-12445.2
-13032.8
-13725.6
-14551
-15549.7
-16785.4
-18366.6
-20499.2
-23625.7
-28846.4
32971.2
27738.1
24586.8
22417
20786.2
19488.8
18416
17504.2
16713.1
16015.2
15390.8
14825.4
14307.7
13828.5
13380.7
12958
12555.3
12168
11792.2
11424.6
11062
10701.9
10341.8
9979.72
9613.8
9242.48
8864.44
8478.56
8083.96
7679.95
7266.06
6841.99
6407.67
5963.16
5508.75
5044.86
4572.08
4091.16
3602.97
3108.51
2608.9
2105.36
1599.19
1091.77
584.523
78.9268
-423.522
-921.314
-1412.95
-1896.95
-2371.87
-2836.32
-3288.98
-3728.62
-4154.08
-4564.33
-4958.44
-5335.62
-5695.22
-6036.74
-6359.8
-6664.22
-6949.97
-7217.18
-7466.15
-7697.37
-7911.48
-8109.3
-8291.82
-8460.22
-8615.82
-8760.11
-8894.78
-9021.64
-9142.69
-9260.09
-9376.17
-9493.45
-9614.6
-9742.52
-9880.32
-10031.4
-10199.3
-10388.1
-10602.1
-10846.4
-11126.5
-11448.8
-11821.1
-12252.6
-12754.6
-13342.2
-14034.9
-14860.4
-15859.1
-17094.7
-18676
-20808.7
-23935.2
-29155.9
33392.7
28159.2
25007.2
22836.3
21203.9
19904.6
18829.5
17915.2
17121.2
16419.9
15791.9
15222.6
14700.5
14216.7
13763.8
13335.8
12927.3
12533.8
12151.5
11776.8
11406.8
11038.8
10670.3
10299.3
9923.93
9542.67
9154.15
8757.25
8351.09
7934.98
7508.44
7071.21
6623.2
6164.52
5695.46
5216.48
4728.19
4231.39
3726.97
3215.99
2699.61
2179.1
1655.81
1131.17
606.667
83.8295
-435.787
-950.617
-1459.1
-1959.71
-2450.93
-2931.34
-3399.56
-3854.3
-4294.36
-4718.68
-5126.28
-5516.34
-5888.19
-6241.28
-6575.24
-6889.86
-7185.1
-7461.09
-7718.12
-7956.69
-8177.46
-8381.25
-8569.09
-8742.16
-8901.81
-9049.59
-9187.18
-9316.46
-9439.45
-9558.37
-9675.58
-9793.63
-9915.26
-10043.4
-10181.2
-10332.1
-10499.7
-10688
-10901.6
-11145.4
-11424.9
-11746.8
-12118.5
-12549.5
-13051.2
-13638.4
-14330.8
-15156
-16154.5
-17390
-18971.2
-21103.8
-24230.2
-29450.9
33795.7
28561.9
25409.2
23237.2
21603.6
20302.5
19225.5
18308.9
17512.2
16808
16176.8
15603.8
15077.8
14589.7
14132.3
13699.2
13285.4
12886.2
12497.7
12116.5
11739.4
11363.9
10987.4
10608
10223.6
9832.88
9434.33
9026.87
8609.61
8181.86
7743.17
7293.25
6832.05
6359.7
5876.5
5382.94
4879.67
4367.5
3847.39
3320.42
2787.81
2250.87
1710.99
1169.67
628.445
88.8961
-447.363
-978.712
-1503.54
-2020.25
-2527.29
-3023.18
-3506.48
-3975.87
-4430.1
-4868.06
-5288.75
-5691.31
-6075.03
-6439.35
-6783.88
-7108.38
-7412.81
-7697.29
-7962.13
-8207.81
-8435
-8644.56
-8837.5
-9015.05
-9178.58
-9329.66
-9470.02
-9601.55
-9726.34
-9846.62
-9964.8
-10083.5
-10205.4
-10333.6
-10471.3
-10621.8
-10788.9
-10976.7
-11189.6
-11432.6
-11711.4
-12032.5
-12403.5
-12833.8
-13334.8
-13921.4
-14613.3
-15438.1
-16436.2
-17671.4
-19252.4
-21384.8
-24511.1
-29731.7
34180.2
28946
25792.7
23619.9
21985.1
20682.6
19603.8
18685.1
17886.1
17179.3
16545.1
15968.8
15439.3
14947.3
14485.6
14048
13629.2
13224.6
12830.4
12443
12059.3
11676.7
11292.7
10905.2
10512.4
10112.6
9704.44
9286.89
8859.01
8420.12
7969.76
7507.67
7033.8
6548.29
6051.49
5543.89
5026.18
4499.21
3963.97
3421.59
2873.31
2320.5
1764.62
1207.19
649.815
94.1225
-458.217
-1005.53
-1546.15
-2078.42
-2600.76
-3111.61
-3609.5
-4093.05
-4560.99
-5012.14
-5445.49
-5860.13
-6255.33
-6630.51
-6985.24
-7319.29
-7632.6
-7925.29
-8197.65
-8450.18
-8683.56
-8898.66
-9096.5
-9278.34
-9445.57
-9599.78
-9742.75
-9876.39
-10002.8
-10124.3
-10243.3
-10362.5
-10484.7
-10612.8
-10750.1
-10900.1
-11066.6
-11253.6
-11465.7
-11707.8
-11985.7
-12305.9
-12676
-13105.4
-13605.7
-14191.5
-14882.7
-15706.9
-16704.5
-17939.3
-19519.9
-21652
-24778.2
-29998.8
34545.9
29311.6
26157.7
23984.1
22348.3
21044.5
19964.1
19043.6
18242.5
17533.3
16896.5
16317.3
15784.5
15289
14823.4
14381.6
13958.2
13548.7
13149.1
12755.9
12366
11976.7
11585.6
11190.5
10789.6
10381.2
9963.97
9536.8
9098.79
8649.26
8187.74
7714
7228
6729.9
6220.04
5698.98
5167.42
4626.23
4076.45
3519.25
2955.92
2387.86
1816.58
1243.66
670.733
99.5031
-468.317
-1031
-1586.82
-2134.1
-2671.16
-3196.42
-3708.37
-4205.57
-4686.71
-5150.58
-5596.12
-6022.4
-6428.66
-6814.29
-7178.86
-7522.11
-7843.96
-8144.54
-8424.14
-8683.26
-8922.59
-9142.98
-9345.52
-9531.45
-9702.21
-9859.39
-10004.8
-10140.4
-10268.4
-10391
-10510.7
-10630.3
-10752.5
-10880.4
-11017.3
-11166.8
-11332.5
-11518.6
-11729.7
-11970.8
-12247.7
-12566.8
-12935.9
-13364.3
-13863.6
-14448.6
-15139
-15962.5
-16959.5
-18193.7
-19773.9
-21905.7
-25031.7
-30252.1
34893
29658.3
26504.1
24329.8
22693
21388.1
20306.4
19384.2
18581.3
17870
17230.7
16648.9
16113.1
15614.4
15145.3
14699.5
14271.9
13857.7
13453.2
13054.6
12658.9
12263.4
11865.6
11463.3
11054.7
10638.2
10212.4
9776.08
9328.44
8868.78
8396.65
7911.81
7414.23
6904.1
6381.79
5847.86
5303.05
4748.27
4184.58
3613.2
3035.45
2452.78
1866.75
1278.98
691.157
105.031
-477.633
-1055.06
-1625.47
-2187.12
-2738.32
-3277.41
-3802.84
-4313.14
-4806.95
-5283.03
-5740.27
-6177.73
-6594.61
-6990.27
-7364.27
-7716.34
-8046.4
-8354.54
-8641.08
-8906.51
-9151.52
-9376.99
-9584.01
-9773.84
-9947.93
-10107.9
-10255.7
-10393.1
-10522.5
-10646.1
-10766.4
-10886.2
-11008.4
-11136.1
-11272.5
-11421.2
-11586.1
-11771.3
-11981.3
-12221.3
-12497
-12815
-13183
-13610.3
-14108.6
-14692.6
-15382.1
-16204.8
-17201.1
-18434.8
-20014.5
-22145.9
-25271.6
-30492
35221
29986.2
26831.5
24656.6
23019
21713.1
20630.2
19706.6
18902
18188.8
17547.4
16963.2
16424.7
15923
15450.6
15001.3
14569.8
14151.4
13742.2
13338.6
12937.5
12536.2
12132.1
11723.1
11307.3
10883.1
10449.1
10004.2
9547.45
9078.2
8596
8100.63
7592.06
7070.5
6536.34
5990.17
5432.76
4865.03
4288.1
3703.2
3111.71
2515.11
1915.01
1313.07
711.039
110.697
-486.136
-1077.63
-1661.97
-2237.36
-2802.06
-3354.37
-3892.68
-4415.5
-4921.41
-5409.15
-5877.58
-6325.72
-6752.74
-7158
-7541.02
-7901.52
-8239.4
-8554.78
-8847.94
-9119.38
-9369.81
-9600.12
-9811.4
-10004.9
-10182.2
-10344.9
-10494.8
-10633.9
-10764.5
-10889
-11009.9
-11130
-11252.1
-11379.4
-11515.2
-11663.2
-11827.2
-12011.3
-12220.3
-12459.1
-12733.6
-13050.4
-13417.1
-13843.3
-14340.5
-14923.4
-15612
-16433.9
-17429.4
-18662.5
-20241.6
-22372.7
-25498.2
-30718.4
35529.8
30294.8
27139.8
24964.4
23326.1
22019.3
20935.3
20010.4
19204.3
18489.4
17846.1
17259.7
16718.9
16214.5
15739.1
15286.5
14851.4
14429.1
14015.6
13607.4
13201.3
12794.5
12384.5
11969.2
11546.7
11115.3
10673.7
10220.7
9755.33
9277.04
8785.34
8280.02
7761.07
7228.7
6683.34
6125.58
5556.22
4976.24
4386.75
3789.03
3184.51
2574.7
1961.25
1345.86
730.334
116.491
-493.801
-1098.67
-1696.24
-2284.69
-2862.21
-3427.08
-3977.65
-4512.37
-5029.8
-5528.63
-6007.7
-6465.99
-6902.67
-7317.05
-7708.64
-8077.16
-8422.49
-8744.74
-9044.19
-9321.36
-9576.94
-9811.83
-10027.2
-10224.2
-10404.5
-10569.6
-10721.5
-10862.3
-10994.1
-11119.4
-11240.8
-11360.9
-11482.9
-11609.8
-11745.1
-11892.3
-12055.3
-12238.4
-12446.2
-12683.8
-12957.1
-13272.6
-13638.2
-14063.2
-14559.2
-15141.1
-15828.7
-16649.6
-17644.4
-18876.8
-20455.4
-22586.1
-25711.3
-30931.4
35819
30583.9
27428.6
25252.7
23613.8
22306.2
21221.3
20295.3
19487.9
18771.5
18126.4
17538.1
16995.1
16488.3
16010.2
15554.7
15116.2
14690.4
14272.9
13860.4
13449.6
13037.8
12622.4
12201.2
11772.4
11334.4
10885.6
10425
9951.59
9464.82
8964.21
8449.55
7920.84
7378.32
6822.41
6253.74
5673.14
5081.6
4480.28
3870.48
3253.67
2631.4
2005.34
1377.27
748.993
122.401
-500.603
-1118.1
-1728.18
-2328.97
-2918.62
-3495.37
-4057.52
-4603.49
-5131.81
-5641.14
-6130.27
-6598.18
-7043.98
-7466.99
-7866.71
-8242.81
-8595.2
-8923.94
-9229.35
-9511.93
-9772.37
-10011.6
-10230.7
-10431.1
-10614.2
-10781.7
-10935.5
-11077.8
-11210.7
-11336.7
-11458.4
-11578.7
-11700.5
-11827
-11961.6
-12108
-12270.1
-12452.1
-12658.8
-12895.2
-13167.2
-13481.5
-13845.8
-14269.6
-14764.5
-15345.3
-16031.9
-16852
-17846
-19077.7
-20655.8
-22786.1
-25911
-31130.9
36088.5
30853.2
27697.6
25521.4
23881.9
22573.7
21487.9
20560.9
19752.3
19034.6
18388
17798
17253
16744
16263.5
15805.2
15363.8
14934.7
14513.6
14097.2
13682.1
13265.6
12845.2
12418.6
11984
11539.7
11084.3
10616.6
10135.8
9641.1
9132.18
8608.8
8070.98
7518.96
6953.2
6374.33
5783.21
5180.85
4568.45
3947.34
3319
2685.05
2047.18
1407.2
766.97
128.413
-506.523
-1135.88
-1757.71
-2370.08
-2971.12
-3559.03
-4132.07
-4688.62
-5227.18
-5746.37
-6244.97
-6721.92
-7176.31
-7607.44
-8014.8
-8398.04
-8757.05
-9091.92
-9402.93
-9690.59
-9955.62
-10198.9
-10421.6
-10625.1
-10810.8
-10980.5
-11136.2
-11279.8
-11413.7
-11540.4
-11662.5
-11782.8
-11904.4
-12030.5
-12164.5
-12310.1
-12471.2
-12652.2
-12857.7
-13093
-13363.8
-13676.8
-14039.9
-14462.5
-14956.2
-15536
-16221.7
-17040.8
-18034
-19265.1
-20842.7
-22972.5
-26097.1
-31316.9
36337.8
31102.4
27946.6
25770
24130.1
22821.2
21734.7
20806.9
19997.3
19278.4
18630.5
18038.9
17492.1
16981.2
16498.5
16037.8
15593.7
15161.5
14737.2
14317.2
13898.2
13477.5
13052.4
12620.9
12180.9
11730.9
11269.3
10795.1
10307.4
9805.43
9288.81
8757.36
8211.1
7650.28
7075.37
6487.03
5886.14
5273.73
4651.03
4019.39
3380.34
2735.51
2086.64
1435.58
784.216
134.513
-511.543
-1151.95
-1784.73
-2407.91
-3019.58
-3617.9
-4201.1
-4767.52
-5315.64
-5844.04
-6351.48
-6836.87
-7299.29
-7738.01
-8152.5
-8542.41
-8907.63
-9248.21
-9564.46
-9856.88
-10126.2
-10373.3
-10599.4
-10805.7
-10993.9
-11165.7
-11323
-11467.9
-11602.7
-11730
-11852.4
-11972.8
-12094.2
-12219.8
-12353.2
-12498
-12658.3
-12838.3
-13042.7
-13276.8
-13546.4
-13858.2
-14220.2
-14641.6
-15134.3
-15713
-16397.7