/*--------------------------------*- C++ -*----------------------------------*\
  =========                 |
  \\      /  F ield         | OpenFOAM: The Open Source CFD Toolbox
   \\    /   O peration     | Website:  https://openfoam.org
    \\  /    A nd           | Version:  9
     \\/     M anipulation  |
\*---------------------------------------------------------------------------*/
FoamFile
{
    format      ascii;
    class       volScalarField;
    location    "0.5";
    object      gradTy;
}
// * * * * * * * * * * * * * * * * * * * * * * * * * * * * * * * * * * * * * //

dimensions      [0 -1 0 1 0 0 0];

internalField   nonuniform List<scalar> 
200000
(
5131.68
10360.7
13634.5
15985.4
17825.7
19348.2
20655.5
21807.8
22843.2
23787.3
24658.1
25468.4
26227.9
26944.1
27622.6
28267.9
28883.4
29471.9
30035.6
30576.2
31095.2
31593.5
32071.9
32531
32971.2
33392.7
33795.7
34180.2
34545.9
34893
35221
35529.8
35819
36088.5
36337.8
36566.7
36774.9
36962
37127.9
37272.3
37395
37495.9
37574.9
37632
37667.1
37680.3
37671.8
37641.8
37590.5
37518.2
37425.2
37312.1
37179.3
37027.2
36856.6
36668
36462.1
36239.5
36001
35747.3
35479.1
35197.3
34902.5
34595.5
34277
33947.7
33608.2
33259.3
32901.4
32535
32160.5
31778.4
31388.7
30991.8
30587.5
30175.8
29756.4
29328.8
28892.5
28446.6
27990
27521.2
27038.7
26540.2
26023.2
25484.5
24920
24324.9
23693
23016.5
22285.1
21485.4
20599
19599.7
18448.9
17085.8
15407.4
13220.3
10111.7
5048.57
2405.6
6097.23
8855.79
11000.9
12745.1
14216.5
15493.8
16627
17649.6
18584.8
19448.9
20254.3
21010.1
21723.3
22399.4
23042.7
23656.6
24243.8
24806.4
25346.1
25864.3
26361.9
26839.7
27298.3
27738.1
28159.2
28561.9
28946
29311.6
29658.3
29986.2
30294.8
30583.9
30853.2
31102.4
31331.2
31539.3
31726.4
31892.2
32036.6
32159.2
32260.1
32339.1
32396.1
32431.3
32444.5
32436
32406
32354.7
32282.4
32189.5
32076.4
31943.7
31791.7
31621.1
31432.6
31226.7
31004.2
30765.7
30512.1
30244.1
29962.3
29667.6
29360.7
29042.4
28713.2
28373.9
28025.1
27667.4
27301.2
26926.9
26545
26155.7
25759
25355.1
24943.7
24524.8
24097.7
23662
23216.7
22760.9
22293.1
21811.6
21314.4
20799
20262.1
19699.9
19107.8
18479.6
17808
17083.1
16292.4
15418.7
14438.3
13317.5
12005.5
10423.2
8441.77
5848.28
2322.53
1481.75
4142.91
6385.46
8265.78
9865.4
11252.4
12477.1
13575.8
14574.7
15492.9
16344.5
17140.4
17888.8
18596.2
19267.7
19907.2
20518
21102.6
21663
22200.9
22717.4
23213.7
23690.4
24148
24586.8
25007.2
25409.2
25792.7
26157.7
26504.1
26831.5
27139.8
27428.6
27697.6
27946.6
28175.2
28383.1
28570.1
28735.8
28880
29002.7
29103.5
29182.4
29239.5
29274.6
29287.8
29279.4
29249.4
29198.1
29125.9
29033.1
28920.1
28787.4
28635.5
28465.1
28276.6
28070.9
27848.5
27610.3
27356.8
27088.9
26807.4
26512.9
26206.3
25888.1
25559.3
25220.3
24871.8
24514.4
24148.6
23774.8
23393.4
23004.5
22608.5
22205.2
21794.7
21376.6
20950.5
20515.9
20072
19617.6
19151.6
18672.3
18177.6
17665.2
17132
16574.5
15988
15367.1
14704.8
13992.4
13218.5
12368.4
11422.5
10354.1
9126.42
7688.51
5971.77
3894.15
1398.75
1073.59
3117.57
4962.87
6597.51
8043.95
9332.73
10492.3
11546.2
12513.3
13408.1
14242.3
15024.8
15762.8
16461.9
17126.6
17760.6
18366.8
18947.6
19504.8
20040
20554.2
21048.4
21523.4
21979.5
22417
22836.3
23237.2
23619.9
23984.1
24329.8
24656.6
24964.4
25252.7
25521.4
25770
25998.3
26206
26392.7
26558.2
26702.3
26824.8
26925.6
27004.5
27061.5
27096.6
27109.8
27101.4
27071.5
27020.3
26948.2
26855.5
26742.6
26610
26458.3
26288.1
26099.8
25894.3
25672.2
25434.1
25180.9
24913.4
24632.1
24338
24031.7
23713.9
23385.5
23046.9
22699
22342.1
21976.9
21603.8
21223.1
20835
20439.9
20037.6
19628.2
19211.4
18786.8
18353.9
17911.9
17459.8
16996.5
16520.2
16029.3
15521.3
14993.5
14442.6
13864.3
13253.7
12604.7
11909.5
11158.7
10340.3
9438.99
8435.57
7305.87
6020.94
4549.69
2869.12
990.678
851.75
2511.07
4067.29
5497.67
6802.51
7992.8
9082.84
10086.7
11017
11884.3
12697.3
13463.3
14188.2
14876.8
15533
16160
16760.4
17336.2
17889.3
18420.9
18932
19423.7
19896.3
20350.4
20786.2
21203.9
21603.6
21985.1
22348.3
22693
23019
23326.1
23613.8
23881.9
24130.1
24358
24565.3
24751.8
24917.1
25061
25183.3
25284
25362.8
25419.7
25454.8
25468.1
25459.7
25429.9
25378.8
25306.8
25214.2
25101.5
24969.2
24817.7
24647.7
24459.7
24254.4
24032.6
23794.9
23542.1
23274.9
22994.1
22700.4
22394.6
22077.4
21749.5
21411.6
21064.3
20708.2
20343.7
19971.5
19591.7
19204.8
18810.8
18409.9
18002
17586.9
17164.3
16733.6
16294.1
15845
15385.1
14912.9
14426.7
13924.4
13403.5
12860.9
12292.9
11695.2
11062.4
10388.1
9664.71
8882.82
8031.31
7097.13
6065.66
4922.06
3654.8
2263.04
768.982
713.118
2116.72
3461.79
4728.43
5910.13
7008.77
8030.5
8983.04
9874.23
10711.3
11500.8
12248.1
12958
13634.4
14280.5
14899.1
15492.5
16062.4
16610.5
17137.7
17645.2
18133.6
18603.4
19055.1
19488.8
19904.6
20302.5
20682.6
21044.5
21388.1
21713.1
22019.3
22306.2
22573.7
22821.2
23048.6
23255.5
23441.6
23606.6
23750.2
23872.4
23972.9
24051.6
24108.5
24143.5
24156.9
24148.5
24118.8
24067.8
23996
23903.6
23791.1
23659
23507.8
23338.1
23150.5
22945.6
22724.2
22487
22234.6
21967.9
21687.6
21394.5
21089.4
20772.8
20445.6
20108.5
19762.1
19406.9
19043.5
18672.3
18293.8
17908.2
17515.7
17116.5
16710.5
16297.5
15877.2
15449.2
15012.9
14567.4
14111.6
13644.3
13163.8
12668.4
12155.6
11622.7
11066.7
10483.8
9869.38
9218.42
8524.84
7781.71
6981.22
6115.03
5174.87
4154.06
3050.19
1869.22
630.528
618.192
1841.41
3028.72
4164.88
5242.21
6258.82
7216.48
8118.93
8970.77
9776.7
10541.2
11268.4
11961.8
12624.7
13259.6
13868.8
14454.2
15017.3
15559.5
16081.8
16584.9
17069.6
17536.1
17984.8
18416
18829.5
19225.5
19603.8
19964.1
20306.4
20630.2
20935.3
21221.3
21487.9
21734.7
21961.5
22167.8
22353.4
22518
22661.4
22783.3
22883.6
22962.2
23019
23054
23067.4
23059.1
23029.5
22978.7
22907.1
22815
22702.8
22571
22420.1
22250.8
22063.6
21859.2
21638.3
21401.6
21149.8
20883.8
20604.2
20311.8
20007.4
19691.7
19365.4
19029.2
18683.8
18329.8
17967.6
17597.8
17220.8
16836.8
16446.1
16048.9
15645.1
15234.6
14817.1
14392.4
13959.7
13518.3
13067.4
12605.7
12131.8
11644
11140.3
10618.4
10075.6
9508.76
8914.17
8287.78
7625.01
6920.84
6170.03
5367.49
4508.93
3592.05
2618.22
1594.58
535.824
549.019
1638.7
2704.91
3736.31
4725.9
5670.48
6569.63
7424.77
8238.3
9013.11
9752.21
10458.5
11134.6
11783
12405.7
13004.6
13581.3
14136.9
14672.6
15189.3
15687.5
16167.9
16630.6
17076.1
17504.2
17915.2
18308.9
18685.1
19043.6
19384.2
19706.6
20010.4
20295.3
20560.9
20806.9
21032.9
21238.6
21423.6
21587.8
21730.8
21852.4
21952.4
22030.9
22087.6
22122.6
22136
22127.8
22098.3
22047.7
21976.3
21884.5
21772.7
21641.3
21490.9
21322
21135.4
20931.5
20711.3
20475.2
20224.2
19958.9
19680.1
19388.6
19085.1
18770.4
18445.2
18110.2
17766.1
17413.4
17052.7
16684.5
16309.2
15927.1
15538.5
15143.6
14742.4
14334.7
13920.5
13499.4
13070.8
12634.2
12188.6
11733.1
11266.5
10787.1
10293.4
9783.34
9254.6
8704.62
8130.5
7529.08
6896.95
6230.6
5526.63
4782.08
3995.03
3165.36
2295.76
1392.68
466.923
496.296
1483.24
2454.04
3400.25
4315.97
5197.79
6044.29
6855.55
7632.63
8377.14
9090.98
9776.12
10434.5
11067.8
11677.8
12265.7
12833
13380.5
13909.1
14419.6
14912.4
15388
15846.6
16288.3
16713.1
17121.2
17512.2
17886.1
18242.5
18581.3
18902
19204.3
19487.9
19752.3
19997.3
20222.4
20427.3
20611.7
20775.3
20917.8
21039
21138.8
21217.1
21273.7
21308.7
21322.1
21314
21284.7
21234.4
21163.3
21071.8
20960.3
20829.4
20679.5
20511.3
20325.3
20122.1
19902.6
19667.3
19417.2
19152.8
18875
18584.5
18282.2
17968.7
17644.8
17311.2
16968.5
16617.3
16258.3
15892
15518.7
15138.8
14752.6
14360.4
13962
13557.7
13147.1
12730
12306
11874.5
11434.9
10986.1
10527.3
10056.9
9573.77
9076.03
8561.86
8029.16
7475.67
6898.96
6296.57
5666.1
5005.39
4312.89
3587.99
2831.56
2046.51
1238.19
414.523
454.707
1360.12
2253.98
3129.89
3983.03
4810.19
5609.6
6380.64
7123.51
7838.99
8528.18
9192.34
9832.78
10450.8
11047.5
11624.1
12181.4
12720.3
13241.4
13745.2
14232.1
14702.5
15156.4
15594
16015.2
16419.9
16808
17179.3
17533.3
17870
18188.8
18489.4
18771.5
19034.6
19278.4
19502.4
19706.5
19890.1
20053
20195
20315.8
20415.3
20493.3
20549.7
20584.7
20598.1
20590.2
20561.1
20511
20440.2
20349.2
20238.2
20107.9
19958.6
19791
19605.8
19403.5
19184.8
18950.5
18701.4
18438.1
18161.4
17872.2
17571.2
17259.1
16936.7
16604.7
16263.7
15914.4
15557.3
15193.1
14822.1
14444.7
14061.2
13671.9
13276.8
12876.1
12469.4
12056.8
11637.8
11211.9
10778.6
10337.1
9886.43
9425.6
8953.34
8468.29
7968.91
7453.54
6920.41
6367.72
5793.7
5196.75
4575.57
3929.44
3258.45
2563.87
1848.35
1116.22
373.318
420.99
1260.03
2090.53
2907.56
3707.21
4486.63
5243.99
5978.32
6689.36
7377.3
8042.7
8686.31
9308.96
9911.52
10494.8
11059.6
11606.7
12136.5
12649.6
13146.3
13626.9
14091.7
14540.6
14973.7
15390.8
15791.9
16176.8
16545.1
16896.5
17230.7
17547.4
17846.1
18126.4
18388
18630.5
18853.3
19056.3
19239
19401.2
19542.6
19662.9
19762
19839.7
19896
19930.9
19944.4
19936.6
19907.7
19857.9
19787.5
19697
19586.6
19456.9
19308.4
19141.6
18957.2
18755.9
18538.3
18305.1
18057.2
17795.2
17519.9
17232.1
16932.6
16622.2
16301.5
15971.3
15632.3
15285
14930.2
14568.4
14200
13825.4
13444.9
13058.9
12667.4
12270.5
11868.3
11460.4
11046.7
10626.9
10200.3
9766.3
9324.23
8873.17
8412.09
7939.88
7455.3
6957.04
6443.75
5914.1
5366.85
4800.93
4215.63
3610.71
2986.61
2344.64
1687.13
1017.47
340.048
393.025
1176.86
1954.19
2721.18
3474.64
4212.11
4931.84
5632.74
6314.24
6976.23
7618.85
8242.48
8847.6
9434.77
10004.5
10557.4
11093.8
11614.2
12119
12608.2
13082.2
13540.9
13984.4
14412.6
14825.4
15222.6
15603.8
15968.8
16317.3
16648.9
16963.2
17259.7
17538.1
17798
18038.9
18260.4
18462.2
18643.9
18805.2
18945.8
19065.5
19164.1
19241.5
19297.6
19332.4
19346
19338.3
19309.7
19260.3
19190.4
19100.4
18990.7
18861.8
18714.1
18548.3
18365
18164.7
17948.3
17716.5
17469.9
17209.4
16935.7
16649.6
16351.9
16043.3
15724.6
15396.5
15059.7
14714.8
14362.6
14003.4
13637.9
13266.4
12889.3
12506.8
12119.3
11726.7
11329.1
10926.4
10518.4
10104.8
9685.23
9259.15
8825.93
8384.84
7935.08
7475.71
7005.78
6524.25
6030.11
5522.38
5000.19
4462.87
3910.06
3341.8
2758.66
2161.87
1553.37
935.844
312.601
369.371
1106.39
1838.36
2562.24
3275.39
3975.72
4661.63
5332
5986.14
6623.7
7244.59
7848.9
8436.88
9008.79
9564.98
10105.7
10631.4
11142.1
11638.1
12119.6
12586.5
13038.9
13476.6
13899.6
14307.7
14700.5
15077.8
15439.3
15784.5
16113.1
16424.7
16718.9
16995.1
17253
17492.1
17712.1
17912.6
18093.1
18253.4
18393.2
18512.2
18610.3
18687.3
18743.2
18777.9
18791.5
18784
18755.7
18706.7
18637.3
18548
18439.1
18311
18164.3
17999.6
17817.5
17618.6
17403.6
17173.2
16928.2
16669.4
16397.5
16113.4
15817.7
15511.2
15194.8
14869.1
14534.8
14192.6
13843.2
13487
13124.7
12756.6
12383.2
12004.7
11621.4
11233.4
10840.8
10443.6
10041.6
9634.62
9222.35
8804.37
8380.2
7949.22
7510.8
7064.2
6608.65
6143.37
5667.58
5180.59
4681.8
4170.79
3647.41
3111.85
2564.7
2007.06
1440.51
867.166
289.542
349.011
1045.68
1738.34
2424.54
3102.14
3769.31
4424.63
5067.03
5695.75
6310.33
6910.5
7496.19
8067.42
8624.29
9166.95
9695.53
10210.2
10711
11198.1
11671.4
12130.9
12576.6
13008.2
13425.6
13828.5
14216.7
14589.7
14947.3
15289
15614.4
15923
16214.5
16488.3
16744
16981.2
17199.4
17398.3
17577.5
17736.7
17875.5
17993.8
18091.3
18167.9
18223.5
18258
18271.6
18264.4
18236.3
18187.8
18119.1
18030.5
17922.5
17795.4
17649.9
17486.4
17305.7
17108.2
16894.9
16666.2
16423.1
16166.2
15896.4
15614.4
15321
15017
14703.1
14380.1
14048.7
13709.5
13363.2
13010.4
12651.6
12287.3
11917.8
11543.6
11164.9
10781.9
10394.6
10003.2
9607.52
9207.44
8802.73
8393.07
7978.08
7557.3
7130.19
6696.19
6254.71
5805.13
5346.89
4879.48
4402.49
3915.69
3419.03
2912.78
2397.49
1874.09
1343.87
808.483
269.861
331.206
992.529
1650.63
2303.51
2949.37
3586.66
4214.13
4830.75
5435.78
6028.68
6609.1
7176.81
7731.71
8273.76
8802.95
9319.31
9822.84
10313.5
10791.4
11256.2
11708
12146.6
12571.8
12983.2
13380.7
13763.8
14132.3
14485.6
14823.4
15145.3
15450.6
15739.1
16010.2
16263.5
16498.5
16714.8
16912
17089.7
17247.5
17385.3
17502.6
17599.4
17675.5
17730.8
17765.2
17778.9
17771.8
17744.2
17696.2
17628.2
17540.4
17433.4
17307.5
17163.2
17001.2
16822
16626.3
16414.7
16188.1
15947.1
15692.4
15425
15145.4
14854.7
14553.4
14242.4
13922.4
13594.1
13258.3
12915.5
12566.4
12211.5
11851.3
11486.2
11116.6
10742.8
10365.1
9983.48
9598.15
9209.06
8816.13
8419.2
8018.04
7612.36
7201.79
6785.94
6364.36
5936.58
5502.16
5060.67
4611.73
4155.08
3690.59
3218.3
2738.46
2251.57
1758.4
1260
757.642
252.826
315.404
945.324
1572.61
2195.62
2812.85
3422.96
4024.84
4617.56
5200.39
5772.77
6334.28
6884.62
7423.58
7951.01
8466.82
8970.9
9463.17
9943.53
10411.9
10868
11311.8
11742.9
12161.3
12566.4
12958
13335.8
13699.2
14048
14381.6
14699.5
15001.3
15286.5
15554.7
15805.2
16037.8
16251.9
16447.1
16623.1
16779.6
16916.1
17032.4
17128.4
17204
17258.9
17293.1
17306.8
17300
17272.7
17225.4
17158.1
17071.3
16965.4
16840.8
16698
16537.6
16360.2
16166.4
15957
15732.5
15493.9
15241.8
14976.9
14700.2
14412.4
14114.2
13806.4
13489.8
13165
12832.9
12494
12148.9
11798.3
11442.5
11082.2
10717.6
10349.1
9977.01
9601.42
9222.5
8840.29
8454.77
8065.83
7673.34
7277.06
6876.74
6472.06
6062.68
5648.27
5228.46
4802.95
4371.47
3933.85
3490.01
3040.02
2584.13
2122.76
1656.55
1186.3
713.035
237.89
301.181
902.811
1502.27
2098.18
2689.27
3274.4
3852.58
4422.97
4984.87
5537.71
6081.05
6614.55
7137.91
7650.92
8153.39
8645.14
9126.02
9595.84
10054.4
10501.5
10936.9
11360.3
11771.4
12169.9
12555.3
12927.3
13285.4
13629.2
13958.2
14271.9
14569.8
14851.4
15116.2
15363.8
15593.7
15805.4
15998.5
16172.6
16327.4
16462.5
16577.7
16672.8
16747.7
16802.2
16836.3
16850
16843.4
16816.6
16769.9
16703.5
16617.8
16513.2
16390
16248.9
16090.3
15914.9
15723.3
15516.2
15294.2
15058.2
14808.9
14547.1
14273.5
13988.9
13694.2
13390
13077.1
12756.3
12428.3
12093.6
11753
11407
11056.1
10700.9
10341.7
9978.89
9612.74
9243.49
8871.3
8496.26
8118.39
7737.67
7353.99
6967.21
6577.14
6183.55
5786.19
5384.79
4979.1
4568.88
4153.94
3734.17
3309.52
2880.09
2446.07
2007.82
1565.85
1120.79
673.431
224.638
288.208
864.013
1438
2009.03
2576
3137.93
3693.96
4243.31
4785.33
5319.47
5845.28
6362.37
6870.41
7369.14
7858.3
8337.66
8806.99
9266.05
9714.6
10152.4
10579
10994.3
11397.8
11789.2
12168
12533.8
12886.2
13224.6
13548.7
13857.7
14151.4
14429.1
14690.4
14934.7
15161.5
15370.5
15561.2
15733.2
15886.2
16019.8
16133.7
16227.9
16302
16356
16389.8
16403.5
16397.2
16371
16325
16259.6
16175.1
16071.9
15950.3
15811.1
15654.5
15481.3
15292.2
15087.7
14868.5
14635.5
14389.4
14130.9
13860.8
13579.9
13288.9
12988.7
12680
12363.5
12039.9
11710
11374.2
11033.3
10687.7
10338
9984.57
9627.8
9268
8905.44
8540.3
8172.72
7802.77
7430.47
7055.77
6678.59
6298.8
5916.23
5530.7
5142.02
4749.98
4354.43
3955.23
3552.28
3145.57
2735.19
2321.3
1904.18
1484.22
1061.92
637.872
212.746
276.222
828.152
1378.55
1926.45
2470.91
3011.09
3546.2
4075.57
4598.57
5114.69
5623.46
6124.5
6617.44
7101.98
7577.82
8044.68
8502.29
8950.36
9388.6
9816.69
10234.3
10641
11036.6
11420.4
11792.2
12151.5
12497.7
12830.4
13149.1
13453.2
13742.2
14015.6
14272.9
14513.6
14737.2
14943.3
15131.3
15301
15452
15583.8
15696.4
15789.4
15862.6
15916.1
15949.7
15963.4
15957.4
15931.7
15886.5
15822.2
15739
15637.4
15517.7
15380.4
15226.2
15055.5
14869
14667.4
14451.4
14221.7
13979.1
13724.3
13458
13181.2
12894.4
12598.6
12294.5
11982.8
11664.1
11339.3
11008.8
10673.4
10333.5
9989.75
9642.5
9292.17
8939.1
8583.58
8225.84
7866.03
7504.26
7140.61
6775.06
6407.58
6038.1
5666.51
5292.66
4916.43
4537.67
4156.25
3772.07
3385.07
2995.24
2602.64
2207.41
1809.75
1409.97
1008.43
605.599
201.957
265.011
794.599
1322.89
1849.05
2372.28
2891.83
3407.03
3917.24
4421.91
4920.54
5412.67
5897.91
6375.89
6846.28
7308.74
7762.97
8208.65
8645.47
9073.09
9491.16
9899.32
10297.2
10684.3
11060.3
11424.6
11776.8
12116.5
12443
12755.9
13054.6
13338.6
13607.4
13860.4
14097.2
14317.2
14520
14705.2
14872.3
15021
15150.9
15261.9
15353.6
15426
15478.8
15512.1
15525.8
15520.1
15495
15450.8
15387.6
15305.9
15206
15088.3
14953.3
14801.6
14633.7
14450.2
14251.9
14039.3
13813.3
13574.5
13323.8
13061.8
12789.4
12507.3
12216.4
11917.2
11610.7
11297.4
10978.1
10653.4
10324
9990.28
9652.88
9312.23
8968.76
8622.82
8274.73
7924.72
7573
7219.71
6864.93
6508.72
6151.08
5791.97
5431.32
5069.06
4705.06
4339.24
3971.5
3601.76
3229.96
2856.1
2480.23
2102.43
1722.86
1341.74
959.346
576
192.066
254.404
762.841
1270.17
1775.67
2278.66
2778.48
3274.53
3766.24
4253.09
4734.62
5210.39
5680
6143.09
6599.29
7048.27
7489.7
7923.22
8348.49
8765.16
9172.85
9571.17
9959.69
10338
10705.6
11062
11406.8
11739.4
12059.3
12366
12658.9
12937.5
13201.3
13449.6
13682.1
13898.2
14097.5
14279.5
14443.7
14590
14717.9
14827.1
14917.4
14988.7
15040.9
15073.8
15087.5
15082.1
15057.7
15014.4
14952.6
14872.5
14774.5
14659
14526.5
14377.6
14212.7
14032.5
13837.7
13629
13407
13172.5
12926.2
12668.9
12401.4
12124.5
11838.8
11545.2
11244.3
10936.9
10623.6
10305.2
9982.13
9655.06
9324.5
8990.91
8654.73
8316.34
7976.06
7634.16
7290.86
6946.33
6600.7
6254.03
5906.38
5557.72
5208.04
4857.27
4505.36
4152.22
3797.78
3441.98
3084.76
2726.13
2366.1
2004.73
1642.12
1278.43
913.836
548.577
182.906
244.257
732.453
1219.7
1705.37
2188.87
2669.62
3147.1
3620.78
4090.19
4554.89
5014.48
5468.55
5916.73
6358.67
6794.01
7222.41
7643.49
8056.91
8462.27
8859.19
9247.24
9626.01
9995.02
10353.8
10701.9
11038.8
11363.9
11676.7
11976.7
12263.4
12536.2
12794.5
13037.8
13265.6
13477.5
13672.9
13851.4
14012.6
14156.1
14281.7
14389
14477.8
14548
14599.4
14631.9
14645.6
14640.5
14616.8
14574.6
14514.2
14435.9
14339.9
14226.9
14097.1
13951.2
13789.7
13613.1
13422.2
13217.7
13000.1
12770.2
12528.9
12276.7
12014.6
11743.2
11463.3
11175.6
10880.9
10579.8
10273.1
9961.39
9645.27
9325.31
9002.06
8676
8347.57
8017.15
7685.09
7351.68
7017.16
6681.71
6345.5
6008.61
5671.11
5333.02
4994.35
4655.07
4315.12
3974.46
3633.03
3290.77
2947.65
2603.63
2258.72
1912.95
1566.38
1219.1
871.23
522.92
174.337
234.452
703.082
1170.89
1637.34
2101.9
2564.08
3023.38
3479.36
3931.58
4379.62
4823.09
5261.61
5694.82
6122.35
6543.85
6958.96
7367.31
7768.51
8162.18
8547.91
8925.27
9293.82
9653.08
10002.6
10341.8
10670.3
10987.4
11292.7
11585.6
11865.6
12132.1
12384.5
12622.4
12845.2
13052.4
13243.6
13418.4
13576.2
13716.8
13839.9
13945.1
14032.2
14101.1
14151.7
14183.8
14197.4
14192.7
14169.8
14128.7
14069.9
13993.4
13899.8
13789.3
13662.6
13520
13362.1
13189.5
13002.8
12802.8
12590.1
12365.3
12129.3
11882.7
11626.4
11361.1
11087.4
10806.2
10518.1
10223.9
9924.28
9619.8
9311.1
8998.77
8683.32
8365.27
8045.04
7723.05
7399.64
7075.12
6749.74
6423.72
6097.21
5770.35
5443.21
5115.84
4788.27
4460.48
4132.45
3804.14
3475.5
3146.48
2817.04
2487.15
2156.79
1825.95
1494.67
1162.99
830.966
498.687
166.247
224.89
674.431
1123.26
1570.91
2016.91
2460.83
2902.24
3340.72
3775.87
4207.3
4634.65
5057.55
5475.64
5888.57
6295.98
6697.5
7092.75
7481.37
7862.93
8237.04
8603.24
8961.09
9310.12
9649.83
9979.72
10299.3
10608
10905.2
11190.5
11463.3
11723.1
11969.2
12201.2
12418.6
12620.9
12807.6
12978.2
13132.5
13269.9
13390.2
13493.1
13578.4
13645.9
13695.5
13727.1
13740.7
13736.4
13714.3
13674.5
13617.3
13542.9
13451.7
13344.1
13220.6
13081.6
12927.6
12759.3
12577.3
12382.2
12174.7
11955.5
11725.3
11484.8
11234.7
10975.9
10709
10434.8
10154
9867.15
9575.07
9278.35
8977.61
8673.4
8366.28
8056.73
7745.2
7432.09
7117.77
6802.56
6486.72
6170.46
5853.99
5537.43
5220.88
4904.41
4588.05
4271.82
3955.7
3639.66
3323.66
3007.66
2691.61
2375.46
2059.19
1742.77
1426.19
1109.45
792.575
475.591
158.538
215.487
646.252
1076.4
1505.51
1933.2
2359.05
2782.7
3203.76
3621.87
4036.67
4447.81
4854.94
5257.72
5655.79
6048.8
6436.4
6818.19
7193.8
7562.83
7924.84
8279.41
8626.07
8964.35
9293.77
9613.8
9923.93
10223.6
10512.4
10789.6
11054.7
11307.3
11546.7
11772.4
11984
12180.9
12362.7
12529
12679.3
12813.3
12930.6
13031.1
13114.4
13180.4
13228.9
13260
13273.5
13269.6
13248.3
13209.9
13154.4
13082.3
12993.8
12889.3
12769.2
12634.1
12484.4
12320.8
12143.7
11954
11752.1
11538.8
11314.9
11080.9
10837.7
10585.9
10326.3
10059.6
9786.49
9507.62
9223.66
8935.25
8643
8347.46
8049.18
7748.64
7446.29
7142.56
6837.79
6532.31
6226.41
5920.3
5614.2
5308.23
5002.53
4697.16
4392.18
4087.61
3783.44
3479.66
3176.22
2873.08
2570.2
2267.52
1964.99
1662.58
1360.23
1057.93
755.657
453.392
151.13
206.173
618.337
1029.96
1440.68
1850.15
2258.02
2663.94
3067.57
3468.57
3866.63
4261.4
4652.56
5039.77
5422.69
5800.98
6174.27
6542.2
6904.37
7260.39
7609.84
7952.27
8287.23
8614.25
8932.83
9242.48
9542.67
9832.88
10112.6
10381.2
10638.2
10883.1
11115.3
11334.4
11539.7
11730.9
11907.5
12069
12215
12345.3
12459.5
12557.2
12638.4
12702.7
12750.2
12780.6
12794.1
12790.6
12770.2
12733.2
12679.6
12609.9
12524.2
12423
12306.7
12175.8
12030.7
11872
11700.4
11516.4
11320.6
11113.7
10896.5
10669.6
10433.7
10189.5
9937.69
9679.03
9414.16
9143.77
8868.48
8588.93
8305.72
8019.39
7730.48
7439.47
7146.82
6852.94
6558.2
6262.91
5967.36
5671.79
5376.41
5081.37
4786.79
4492.76
4199.35
3906.57
3614.44
3322.94
3032.04
2741.69
2451.84
2162.43
1873.4
1584.68
1296.23
1007.97
719.877
431.885
143.955
196.89
590.512
983.66
1376.02
1767.28
2157.13
2545.26
2931.37
3315.14
3696.27
4074.46
4449.38
4820.72
5188.16
5551.34
5909.93
6263.56
6611.84
6954.37
7290.75
7620.53
7943.27
8258.49
8565.71
8864.44
9154.15
9434.33
9704.44
9963.97
10212.4
10449.1
10673.7
10885.6
11084.3
11269.3
11440.3
11596.8
11738.3
11864.6
11975.3
12070.2
12149
12211.6
12257.8
12287.6
12300.9
12297.9
12278.5
12243
12191.5
12124.3
12041.6
11944
11831.7
11705.2
11565.1
11411.8
11245.9
11068
10878.7
10678.7
10468.7
10249.3
10021.2
9785.12
9541.69
9291.63
9035.59
8774.23
8508.17
8238.05
7964.42
7687.85
7408.85
7127.91
6845.48
6561.96
6277.71
5993.07
5708.31
5423.68
5139.4
4855.61
4572.46
4290.04
4008.41
3727.6
3447.64
3168.5
2890.16
2612.58
2335.68
2059.42
1783.71
1508.49
1233.67
959.181
684.949
410.898
136.954
187.59
562.631
937.258
1311.19
1684.16
2055.89
2426.1
2794.51
3160.85
3524.83
3886.15
4244.54
4599.68
4951.25
5298.94
5642.39
5981.26
6315.17
6643.72
6966.52
7283.13
7593.11
7895.99
8191.31
8478.56
8757.25
9026.87
9286.89
9536.8
9776.08
10004.2
10220.7
10425
10616.6
10795.1
10960.1
11111.2
11247.9
11369.9
11477
11568.7
11645.1
11705.7
11750.7
11779.7
11792.9
11790.3
11772
11738
11688.7
11624.2
11544.8
11450.9
11342.9
11221.2
11086.3
10938.7
10779
10607.6
10425.3
10232.7
10030.4
9818.97
9599.2
9371.72
9137.19
8896.27
8649.61
8397.84
8141.59
7881.44
7617.97
7351.71
7083.17
6812.84
6541.14
6268.48
5995.22
5721.69
5448.17
5174.9
4902.1
4629.93
4358.52
4087.98
3818.38
3549.76
3282.12
3015.46
2749.76
2484.96
2221.01
1957.84
1695.36
1433.49
1172.14
911.221
650.633
390.285
130.079
178.232
534.576
890.557
1245.93
1600.46
1953.89
2305.98
2656.48
3005.12
3351.66
3695.82
4037.33
4375.89
4711.2
5042.96
5370.83
5694.47
6013.52
6327.58
6636.28
6939.18
7235.86
7525.86
7808.72
8083.96
8351.09
8609.61
8859.01
9098.79
9328.44
9547.45
9755.33
9951.59
10135.8
10307.4
10466.1
10611.4
10742.9
10860.4
10963.5
11052
11125.7
11184.3
11227.8
11256.1
11269.2
11267
11249.7
11217.5
11170.4
11108.8
11032.9
10943
10839.5
10722.9
10593.6
10452
10298.8
10134.4
9959.5
9774.64
9580.46
9377.59
9166.67
8948.33
8723.24
8492.01
8255.29
8013.68
7767.78
7518.18
7265.41
7010.02
6752.5
6493.3
6232.86
5971.58
5709.8
5447.85
5186.01
4924.53
4663.61
4403.42
4144.1
3885.75
3628.45
3372.23
3117.11
2863.09
2610.13
2358.2
2107.23
1857.14
1607.85
1359.27
1111.29
863.812
616.726
369.923
123.289
168.786
506.253
843.401
1180.02
1515.89
1850.8
2184.52
2516.83
2847.49
3176.28
3502.92
3827.18
4148.76
4467.4
4782.79
5094.61
5402.54
5706.22
6005.29
6299.35
6588.01
6870.84
7147.42
7417.27
7679.95
7934.98
8181.86
8420.12
8649.26
8868.78
9078.2
9277.04
9464.82
9641.1
9805.43
9957.4
10096.6
10222.7
10335.4
10434.4
10519.4
10590.2
10646.6
10688.6
10716
10728.9
10727.2
10711.1
10680.6
10635.9
10577.3
10505
10419.4
10320.7
10209.5
10086
9950.89
9804.57
9647.58
9480.49
9303.87
9118.33
8924.46
8722.89
8514.23
8299.1
8078.11
7851.87
7620.98
7386
7147.5
6906.01
6662.03
6416.06
6168.54
5919.89
5670.49
5420.68
5170.8
4921.1
4671.83
4423.19
4175.36
3928.47
3682.63
3437.91
3194.34
2951.96
2710.75
2470.69
2231.74
1993.82
1756.86
1520.78
1285.46
1050.82
816.721
583.059
349.71
116.549
159.226
477.586
795.668
1113.28
1430.25
1746.36
2061.43
2375.25
2687.6
2998.28
3307.04
3613.65
3917.85
4219.38
4517.94
4813.25
5104.97
5392.78
5676.33
5955.24
6229.12
6497.57
6760.17
7016.48
7266.06
7508.44
7743.17
7969.76
8187.74
8396.65
8596
8785.34
8964.21
9132.18
9288.81
9433.73
9566.54
9686.9
9794.51
9889.07
9970.34
10038.1
10092.3
10132.6
10159.2
10171.8
10170.6
10155.6
10127
10084.9
10029.4
9960.97
9879.77
9786.16
9680.54
9563.32
9434.94
9295.89
9146.68
8987.83
8819.9
8643.46
8459.09
8267.37
8068.89
7864.25
7654.04
7438.83
7219.19
6995.68
6768.84
6539.17
6307.16
6073.28
5837.97
5601.62
5364.61
5127.27
4889.91
4652.81
4416.18
4180.24
3945.15
3711.05
3478.04
3246.19
3015.55
2786.14
2557.95
2330.96
2105.12
1880.37
1656.62
1433.8
1211.79
990.477
769.754
549.492
329.562
109.832
149.534
448.521
747.266
1045.6
1343.37
1640.39
1936.49
2231.48
2525.18
2817.38
3107.88
3396.44
3682.83
3966.8
4248.09
4526.4
4801.43
5072.87
5340.39
5603.62
5862.19
6115.73
6363.82
6606.05
6841.99
7071.21
7293.25
7507.67
7714
7911.81
8100.63
8280.02
8449.55
8608.8
8757.36
8894.86
9020.93
9135.25
9237.5
9327.43
9404.79
9469.39
9521.07
9559.72
9585.26
9597.67
9596.97
9583.2
9556.5
9516.99
9464.89
9400.43
9323.89
9235.6
9135.9
9025.2
8903.92
8772.51
8631.46
8481.27
8322.46
8155.58
7981.17
7799.79
7612
7418.37
7219.45
7015.8
6807.97
6596.47
6381.81
6164.5
5945
5723.74
5501.15
5277.62
5053.49
4829.11
4604.75
4380.68
4157.13
3934.29
3712.33
3491.37
3271.52
3052.86
2835.42
2619.23
2404.28
2190.55
1977.99
1766.54
1556.12
1346.64
1138
930.075
722.756
515.912
309.409
103.113
139.697
419.022
698.135
976.894
1255.15
1532.76
1809.56
2085.38
2360.06
2633.42
2905.25
3175.35
3443.51
3709.49
3973.03
4233.87
4491.73
4746.31
4997.29
5244.33
5487.09
5725.18
5958.25
6185.88
6407.67
6623.2
6832.05
7033.8
7228
7414.23
7592.06
7761.07
7920.84
8070.98
8211.1
8340.84
8459.85
8567.82
8664.47
8749.53
8822.77
8884.02
8933.12
8969.95
8994.45
9006.59
9006.37
8993.86
8969.16
8932.4
8883.77
8823.48
8751.82
8669.07
8575.56
8471.68
8357.82
8234.41
8101.9
7960.77
7811.5
7654.61
7490.62
7320.06
7143.44
6961.32
6774.21
6582.64
6387.12
6188.15
5986.22
5781.79
5575.3
5367.18
5157.83
4947.6
4736.85
4525.89
4314.98
4104.39
3894.34
3685
3476.54
3269.09
3062.74
2857.57
2653.61
2450.9
2249.42
2049.15
1850.06
1652.07
1455.11
1259.09
1063.91
869.454
675.603
482.229
289.199
96.3764
129.709
389.066
648.241
907.108
1165.54
1423.4
1680.56
1936.86
2192.16
2446.29
2699.07
2950.31
3199.81
3447.35
3692.7
3935.62
4175.84
4413.07
4647.03
4877.38
5103.81
5325.97
5543.5
5756.02
5963.16
6164.52
6359.7
6548.29
6729.9
6904.1
7070.5
7228.7
7378.32
7518.96
7650.28
7771.92
7883.57
7984.92
8075.7
8155.67
8224.61
8282.34
8328.72
8363.64
8387.03
8398.86
8399.14
8387.92
8365.29
8331.38
8286.35
8230.41
8163.82
8086.84
7999.79
7903.01
7796.88
7681.8
7558.19
7426.5
7287.18
7140.71
6987.58
6828.28
6663.31
6493.17
6318.35
6139.35
5956.65
5770.72
5582.01
5390.96
5197.99
5003.51
4807.87
4611.44
4414.53
4217.44
4020.44
3823.76
3627.6
3432.16
3237.58
3043.98
2851.45
2660.08
2469.89
2280.91
2093.14
1906.56
1721.12
1536.76
1353.41
1170.99
989.388
808.498
628.203
448.377
268.889
89.6069
119.567
358.649
597.573
836.232
1074.52
1312.31
1549.48
1785.92
2021.47
2256
2489.33
2721.31
2951.75
3180.44
3407.17
3631.72
3853.84
4073.27
4289.72
4502.92
4712.55
4918.29
5119.8
5316.74
5508.75
5695.46
5876.5
6051.49
6220.04
6381.79
6536.34
6683.34
6822.41
6953.2
7075.37
7188.6
7292.58
7387.04
7471.71
7546.38
7610.82
7664.88
7708.42
7741.33
7763.55
7775.05
7775.82
7765.92
7745.43
7714.45
7673.16
7621.72
7560.38
7489.39
7409.03
7319.63
7221.53
7115.1
7000.73
6878.84
6749.84
6614.2
6472.34
6324.74
6171.86
6014.16
5852.1
5686.14
5516.73
5344.31
5169.31
4992.12
4813.15
4632.77
4451.33
4269.14
4086.52
3903.75
3721.07
3538.7
3356.84
3175.67
2995.32
2815.91
2637.54
2460.26
2284.12
2109.14
1935.31
1762.63
1591.04
1420.49
1250.92
1082.23
914.332
747.124
580.489
414.307
248.452
82.7954
109.274
327.778
546.146
764.288
982.108
1199.5
1416.37
1632.6
1848.06
2062.62
2276.15
2488.49
2699.46
2908.9
3116.6
3322.36
3525.95
3727.14
3925.66
4121.25
4313.62
4502.49
4687.53
4868.43
5044.86
5216.48
5382.94
5543.89
5698.98
5847.86
5990.17
6125.58
6253.74
6374.33
6487.03
6591.55
6687.59
6774.9
6853.24
6922.39
6982.16
7032.41
7072.98
7103.8
7124.78
7135.91
7137.18
7128.62
7110.32
7082.37
7044.92
6998.14
6942.22
6877.42
6803.98
6722.21
6632.41
6534.92
6430.12
6318.37
6200.06
6075.61
5945.42
5809.92
5669.54
5524.71
5375.84
5223.37
5067.7
4909.25
4748.4
4585.53
4421
4255.17
4088.35
3920.85
3752.94
3584.89
3416.93
3249.27
3082.08
2915.54
2749.76
2584.87
2420.95
2258.05
2096.23
1935.5
1775.85
1617.28
1459.74
1303.18
1147.54
992.739
838.686
685.283
532.423
379.992
227.87
75.9358
98.8369
296.473
493.995
691.325
888.381
1085.08
1281.32
1477.02
1672.06
1866.33
2059.7
2252.04
2443.19
2632.99
2821.28
3007.85
3192.52
3375.05
3555.22
3732.79
3907.49
4079.06
4247.21
4411.65
4572.08
4728.19
4879.67
5026.18
5167.42
5303.05
5432.76
5556.22
5673.14
5783.21
5886.14
5981.65
6069.49
6149.42
6221.2
6284.65
6339.59
6385.87
6423.37
6452
6471.69
6482.41
6484.17
6476.99
6460.93
6436.09
6402.59
6360.58
6310.26
6251.82
6185.51
6111.59
6030.35
5942.09
5847.14
5745.85
5638.56
5525.65
5407.49
5284.48
5156.99
5025.41
4890.15
4751.57
4610.05
4465.98
4319.7
4171.57
4021.9
3871.03
3719.25
3566.82
3414.03
3261.09
3108.22
2955.62
2803.46
2651.87
2501
2350.93
2201.74
2053.51
1906.25
1760.01
1614.76
1470.51
1327.21
1184.81
1043.27
902.501
762.427
622.956
483.988
345.417
207.134
69.0253
88.2662
264.767
441.173
617.418
793.435
969.151
1144.49
1319.36
1493.68
1667.34
1840.23
2012.24
2183.23
2353.07
2521.58
2688.62
2853.99
3017.5
3178.94
3338.1
3494.75
3648.64
3799.51
3947.11
4091.16
4231.39
4367.5
4499.21
4626.23
4748.27
4865.03
4976.24
5081.6
5180.85
5273.73
5359.99
5439.38
5511.7
5576.73
5634.3
5684.24
5726.43
5760.75