/*--------------------------------*- C++ -*----------------------------------*\
  =========                 |
  \\      /  F ield         | OpenFOAM: The Open Source CFD Toolbox
   \\    /   O peration     | Website:  https://openfoam.org
    \\  /    A nd           | Version:  9
     \\/     M anipulation  |
\*---------------------------------------------------------------------------*/
FoamFile
{
    format      ascii;
    class       volScalarField;
    location    "0.5";
    object      T;
}
// * * * * * * * * * * * * * * * * * * * * * * * * * * * * * * * * * * * * * //

dimensions      [0 0 0 1 0 0 0];

internalField   nonuniform List<scalar> 
200000
(
300.36
300.666
300.841
300.963
301.056
301.133
301.199
301.257
301.308
301.356
301.399
301.44
301.478
301.514
301.548
301.58
301.611
301.64
301.669
301.696
301.722
301.746
301.77
301.793
301.815
301.836
301.857
301.876
301.894
301.911
301.928
301.943
301.958
301.971
301.984
301.995
302.006
302.015
302.023
302.03
302.037
302.042
302.046
302.048
302.05
302.051
302.05
302.049
302.046
302.043
302.038
302.032
302.026
302.018
302.01
302
301.99
301.979
301.967
301.954
301.941
301.927
301.912
301.897
301.881
301.864
301.847
301.83
301.812
301.794
301.775
301.756
301.736
301.716
301.696
301.676
301.655
301.633
301.611
301.589
301.566
301.543
301.519
301.494
301.468
301.441
301.413
301.383
301.351
301.317
301.281
301.241
301.196
301.146
301.088
301.019
300.934
300.821
300.654
300.356
300.666
301.406
301.886
302.235
302.509
302.737
302.932
303.105
303.26
303.402
303.532
303.654
303.768
303.875
303.977
304.073
304.166
304.254
304.339
304.42
304.498
304.572
304.644
304.713
304.779
304.842
304.903
304.96
305.015
305.067
305.116
305.163
305.206
305.246
305.284
305.318
305.349
305.377
305.402
305.424
305.442
305.458
305.469
305.478
305.483
305.485
305.484
305.479
305.472
305.461
305.447
305.43
305.41
305.387
305.362
305.333
305.303
305.269
305.233
305.195
305.155
305.113
305.069
305.023
304.975
304.925
304.874
304.822
304.768
304.713
304.657
304.6
304.542
304.482
304.421
304.36
304.297
304.233
304.167
304.1
304.032
303.961
303.889
303.814
303.737
303.656
303.571
303.482
303.387
303.286
303.176
303.057
302.924
302.774
302.602
302.398
302.148
301.823
301.369
300.654
300.841
301.886
302.612
303.163
303.605
303.976
304.297
304.582
304.838
305.073
305.289
305.491
305.68
305.858
306.028
306.189
306.342
306.489
306.63
306.765
306.894
307.019
307.138
307.253
307.363
307.468
307.569
307.665
307.756
307.843
307.925
308.002
308.075
308.142
308.204
308.261
308.313
308.36
308.402
308.438
308.468
308.494
308.513
308.528
308.536
308.54
308.538
308.53
308.517
308.499
308.476
308.448
308.415
308.377
308.334
308.287
308.235
308.18
308.12
308.057
307.99
307.919
307.845
307.769
307.689
307.607
307.522
307.435
307.345
307.254
307.16
307.065
306.967
306.868
306.767
306.664
306.56
306.453
306.344
306.232
306.118
306.001
305.881
305.757
305.628
305.493
305.353
305.204
305.047
304.879
304.697
304.499
304.28
304.034
303.751
303.42
303.018
302.509
301.823
300.821
300.963
302.235
303.163
303.888
304.482
304.987
305.428
305.82
306.175
306.5
306.801
307.082
307.345
307.594
307.83
308.055
308.269
308.475
308.671
308.86
309.041
309.215
309.382
309.542
309.696
309.844
309.984
310.119
310.247
310.368
310.483
310.591
310.692
310.786
310.873
310.953
311.026
311.092
311.15
311.2
311.243
311.278
311.306
311.326
311.338
311.343
311.34
311.329
311.311
311.286
311.254
311.214
311.168
311.114
311.055
310.989
310.917
310.839
310.755
310.667
310.573
310.474
310.371
310.264
310.152
310.037
309.918
309.796
309.671
309.543
309.412
309.279
309.142
309.004
308.862
308.719
308.572
308.423
308.27
308.115
307.955
307.792
307.624
307.45
307.27
307.082
306.886
306.68
306.461
306.227
305.975
305.7
305.397
305.059
304.673
304.223
303.686
303.018
302.147
300.933
301.056
302.509
303.605
304.482
305.214
305.843
306.396
306.891
307.341
307.754
308.138
308.496
308.833
309.151
309.453
309.741
310.016
310.279
310.531
310.773
311.005
311.229
311.443
311.649
311.846
312.036
312.216
312.389
312.553
312.709
312.856
312.995
313.125
313.246
313.358
313.461
313.555
313.639
313.713
313.778
313.833
313.879
313.914
313.94
313.956
313.962
313.958
313.944
313.921
313.889
313.847
313.796
313.737
313.668
313.591
313.507
313.414
313.314
313.207
313.093
312.972
312.846
312.713
312.575
312.432
312.284
312.131
311.975
311.814
311.649
311.481
311.309
311.134
310.956
310.775
310.59
310.402
310.21
310.015
309.815
309.61
309.401
309.185
308.962
308.732
308.492
308.241
307.977
307.698
307.4
307.079
306.731
306.348
305.921
305.439
304.881
304.222
303.419
302.397
301.019
301.133
302.737
303.976
304.987
305.843
306.586
307.244
307.838
308.379
308.877
309.341
309.774
310.183
310.57
310.937
311.287
311.621
311.942
312.249
312.544
312.827
313.1
313.361
313.613
313.854
314.084
314.305
314.516
314.716
314.907
315.086
315.256
315.415
315.562
315.699
315.825
315.939
316.042
316.133
316.212
316.28
316.335
316.378
316.41
316.429
316.436
316.432
316.415
316.387
316.347
316.296
316.234
316.161
316.078
315.984
315.881
315.768
315.645
315.514
315.375
315.228
315.073
314.911
314.743
314.568
314.387
314.201
314.009
313.813
313.612
313.407
313.197
312.983
312.766
312.544
312.319
312.089
311.856
311.617
311.373
311.124
310.869
310.606
310.335
310.055
309.763
309.458
309.138
308.8
308.439
308.052
307.633
307.174
306.665
306.092
305.437
304.67
303.749
302.6
301.087
301.199
302.932
304.297
305.428
306.396
307.244
308.002
308.688
309.316
309.897
310.438
310.945
311.424
311.878
312.309
312.721
313.114
313.491
313.853
314.2
314.534
314.855
315.164
315.46
315.744
316.016
316.277
316.525
316.762
316.987
317.199
317.399
317.586
317.761
317.922
318.071
318.206
318.327
318.435
318.528
318.608
318.673
318.725
318.762
318.784
318.793
318.788
318.768
318.735
318.688
318.628
318.554
318.468
318.37
318.259
318.137
318.003
317.859
317.704
317.54
317.366
317.183
316.992
316.793
316.586
316.373
316.153
315.927
315.695
315.458
315.215
314.968
314.716
314.459
314.198
313.932
313.661
313.386
313.104
312.817
312.524
312.223
311.914
311.595
311.266
310.923
310.566
310.191
309.795
309.374
308.923
308.436
307.904
307.318
306.662
305.916
305.053
304.029
302.771
301.145
301.257
303.105
304.582
305.82
306.891
307.838
308.688
309.461
310.173
310.832
311.449
312.028
312.575
313.095
313.589
314.061
314.512
314.945
315.361
315.76
316.144
316.514
316.869
317.21
317.537
317.85
318.15
318.437
318.709
318.968
319.212
319.443
319.659
319.86
320.046
320.217
320.373
320.513
320.637
320.745
320.836
320.912
320.971
321.014
321.04
321.05
321.044
321.021
320.983
320.929
320.859
320.775
320.676
320.562
320.434
320.293
320.139
319.973
319.795
319.605
319.405
319.194
318.974
318.744
318.506
318.26
318.007
317.746
317.479
317.205
316.926
316.641
316.351
316.055
315.754
315.448
315.136
314.819
314.495
314.165
313.828
313.482
313.127
312.762
312.384
311.991
311.582
311.153
310.702
310.222
309.71
309.158
308.558
307.899
307.166
306.338
305.388
304.272
302.919
301.194
301.308
303.26
304.838
306.175
307.341
308.379
309.316
310.173
310.964
311.699
312.388
313.037
313.651
314.234
314.79
315.321
315.83
316.318
316.787
317.238
317.672
318.089
318.49
318.875
319.245
319.599
319.939
320.263
320.571
320.864
321.14
321.401
321.645
321.873
322.084
322.277
322.453
322.612
322.752
322.874
322.978
323.064
323.131
323.179
323.209
323.22
323.213
323.188
323.144
323.083
323.005
322.909
322.797
322.668
322.524
322.364
322.19
322.001
321.799
321.585
321.358
321.119
320.87
320.61
320.341
320.062
319.775
319.48
319.178
318.868
318.552
318.23
317.901
317.567
317.227
316.881
316.528
316.17
315.804
315.432
315.051
314.661
314.26
313.849
313.423
312.982
312.522
312.042
311.536
311
310.429
309.815
309.15
308.423
307.618
306.715
305.686
304.488
303.05
301.238
301.356
303.402
305.073
306.5
307.754
308.877
309.897
310.832
311.699
312.508
313.267
313.983
314.662
315.308
315.924
316.514
317.079
317.621
318.143
318.644
319.127
319.591
320.038
320.467
320.879
321.274
321.653
322.014
322.358
322.684
322.993
323.284
323.556
323.81
324.046
324.262
324.458
324.635
324.792
324.928
325.044
325.14
325.214
325.268
325.302
325.314
325.306
325.278
325.23
325.162
325.074
324.967
324.841
324.698
324.537
324.358
324.164
323.954
323.728
323.488
323.235
322.969
322.69
322.401
322.1
321.789
321.469
321.14
320.802
320.457
320.105
319.745
319.379
319.006
318.626
318.24
317.848
317.448
317.041
316.627
316.203
315.769
315.324
314.867
314.395
313.906
313.397
312.866
312.307
311.717
311.09
310.418
309.691
308.9
308.028
307.056
305.955
304.682
303.167
301.277
301.399
303.532
305.289
306.801
308.138
309.341
310.438
311.449
312.388
313.267
314.094
314.876
315.618
316.324
317
317.646
318.267
318.863
319.436
319.987
320.518
321.029
321.521
321.994
322.448
322.883
323.3
323.698
324.078
324.438
324.778
325.099
325.4
325.68
325.939
326.178
326.395
326.59
326.763
326.913
327.041
327.147
327.229
327.289
327.326
327.34
327.331
327.3
327.247
327.171
327.075
326.957
326.818
326.66
326.482
326.285
326.07
325.838
325.589
325.325
325.045
324.751
324.444
324.124
323.792
323.449
323.096
322.733
322.361
321.98
321.591
321.194
320.79
320.379
319.961
319.536
319.103
318.664
318.216
317.759
317.293
316.816
316.328
315.826
315.308
314.772
314.216
313.635
313.026
312.384
311.702
310.974
310.19
309.338
308.404
307.367
306.199
304.858
303.273
301.313
301.44
303.654
305.491
307.082
308.496
309.774
310.945
312.028
313.037
313.983
314.876
315.721
316.524
317.29
318.023
318.726
319.4
320.049
320.673
321.274
321.852
322.41
322.946
323.462
323.958
324.433
324.888
325.323
325.737
326.13
326.502
326.853
327.182
327.488
327.772
328.032
328.269
328.483
328.672
328.837
328.977
329.092
329.182
329.248
329.288
329.303
329.294
329.26
329.201
329.119
329.013
328.884
328.733
328.56
328.365
328.15
327.915
327.661
327.389
327.1
326.794
326.473
326.137
325.787
325.424
325.049
324.663
324.266
323.859
323.443
323.018
322.585
322.144
321.695
321.238
320.774
320.302
319.822
319.334
318.836
318.328
317.809
317.278
316.732
316.17
315.588
314.985
314.357
313.699
313.006
312.273
311.491
310.652
309.743
308.75
307.653
306.424
305.019
303.37
301.345
301.478
303.768
305.68
307.345
308.833
310.183
311.424
312.575
313.651
314.662
315.618
316.524
317.387
318.211
319.001
319.758
320.485
321.185
321.859
322.509
323.135
323.737
324.318
324.876
325.413
325.928
326.421
326.892
327.341
327.767
328.171
328.551
328.907
329.24
329.547
329.83
330.087
330.319
330.524
330.703
330.855
330.98
331.078
331.149
331.192
331.209
331.199
331.162
331.099
331.009
330.895
330.755
330.591
330.402
330.191
329.958
329.703
329.428
329.133
328.819
328.487
328.139
327.774
327.395
327.001
326.594
326.175
325.745
325.304
324.852
324.392
323.922
323.444
322.957
322.462
321.96
321.449
320.929
320.401
319.863
319.314
318.754
318.18
317.591
316.985
316.359
315.711
315.036
314.331
313.59
312.807
311.974
311.082
310.12
309.072
307.919
306.631
305.168
303.46
301.375
301.514
303.875
305.858
307.594
309.151
310.57
311.878
313.095
314.234
315.308
316.324
317.29
318.211
319.092
319.936
320.747
321.527
322.277
323
323.697
324.37
325.017
325.641
326.242
326.819
327.373
327.904
328.411
328.894
329.353
329.787
330.197
330.581
330.939
331.27
331.575
331.852
332.101
332.323
332.515
332.679
332.814
332.92
332.996
333.043
333.061
333.051
333.011
332.943
332.846
332.723
332.572
332.395
332.192
331.965
331.713
331.439
331.142
330.824
330.486
330.128
329.752
329.36
328.951
328.527
328.088
327.637
327.173
326.698
326.212
325.716
325.21
324.695
324.171
323.639
323.098
322.549
321.99
321.422
320.844
320.255
319.654
319.039
318.408
317.759
317.091
316.398
315.679
314.928
314.14
313.309
312.427
311.486
310.473
309.373
308.166
306.825
305.307
303.544
301.403
301.548
303.977
306.028
307.83
309.453
310.937
312.309
313.589
314.79
315.924
317
318.023
319.001
319.936
320.834
321.697
322.527
323.328
324.099
324.843
325.561
326.253
326.92
327.562
328.179
328.771
329.339
329.882
330.399
330.89
331.355
331.794
332.205
332.588
332.943
333.27
333.567
333.834
334.071
334.278
334.453
334.598
334.711
334.793
334.844
334.863
334.852
334.809
334.736
334.633
334.501
334.339
334.15
333.932
333.689
333.419
333.125
332.807
332.466
332.103
331.72
331.318
330.897
330.459
330.004
329.535
329.051
328.555
328.046
327.525
326.994
326.452
325.901
325.341
324.771
324.193
323.605
323.008
322.402
321.784
321.156
320.514
319.858
319.187
318.497
317.786
317.05
316.287
315.492
314.659
313.783
312.854
311.865
310.804
309.655
308.398
307.006
305.437
303.622
301.429
301.58
304.073
306.189
308.055
309.741
311.287
312.721
314.061
315.321
316.514
317.646
318.726
319.758
320.747
321.697
322.611
323.491
324.34
325.159
325.949
326.711
327.447
328.156
328.838
329.495
330.126
330.73
331.308
331.859
332.382
332.877
333.345
333.783
334.191
334.57
334.918
335.234
335.519
335.772
335.992
336.18
336.334
336.455
336.542
336.596
336.617
336.605
336.56
336.482
336.372
336.231
336.059
335.857
335.625
335.365
335.078
334.764
334.425
334.061
333.675
333.267
332.837
332.389
331.922
331.437
330.937
330.421
329.892
329.35
328.795
328.229
327.652
327.065
326.468
325.862
325.247
324.622
323.987
323.342
322.686
322.018
321.338
320.642
319.93
319.2
318.448
317.671
316.866
316.028
315.152
314.231
313.258
312.224
311.116
309.92
308.617
307.177
305.559
303.695
301.454
301.611
304.166
306.342
308.269
310.016
311.621
313.114
314.512
315.83
317.079
318.267
319.4
320.485
321.527
322.527
323.491
324.42
325.316
326.181
327.017
327.823
328.601
329.352
330.075
330.77
331.438
332.079
332.691
333.275
333.83
334.356
334.851
335.316
335.749
336.151
336.52
336.856
337.159
337.427
337.661
337.86
338.024
338.152
338.245
338.303
338.325
338.312
338.264
338.181
338.065
337.915
337.732
337.518
337.272
336.996
336.691
336.358
335.998
335.612
335.202
334.769
334.313
333.837
333.341
332.827
332.296
331.749
331.188
330.612
330.024
329.423
328.812
328.19
327.557
326.915
326.263
325.601
324.929
324.246
323.552
322.846
322.127
321.393
320.642
319.872
319.08
318.263
317.417
316.538
315.62
314.657
313.641
312.563
311.412
310.172
308.823
307.338
305.674
303.764
301.477
301.64
304.254
306.489
308.475
310.279
311.942
313.491
314.945
316.318
317.621
318.863
320.049
321.185
322.277
323.328
324.34
325.316
326.259
327.169
328.049
328.899
329.719
330.51
331.272
332.006
332.711
333.387
334.034
334.65
335.236
335.791
336.315
336.806
337.264
337.689
338.079
338.434
338.754
339.038
339.285
339.495
339.668
339.804
339.903
339.964
339.987
339.974
339.923
339.836
339.713
339.554
339.361
339.135
338.875
338.583
338.261
337.909
337.528
337.12
336.687
336.228
335.747
335.243
334.719
334.176
333.615
333.037
332.443
331.835
331.214
330.579
329.934
329.276
328.609
327.931
327.242
326.544
325.836
325.116
324.385
323.642
322.885
322.113
321.324
320.515
319.684
318.828
317.943
317.024
316.066
315.062
314.005
312.886
311.692
310.41
309.018
307.49
305.783
303.83
301.499
301.669
304.339
306.63
308.671
310.531
312.249
313.853
315.361
316.787
318.143
319.436
320.673
321.859
323
324.099
325.159
326.181
327.169
328.124
329.047
329.939
330.8
331.631
332.433
333.204
333.945
334.656
335.336
335.985
336.602
337.186
337.737
338.254
338.736
339.183
339.594
339.968
340.305
340.604
340.865
341.087
341.269
341.412
341.516
341.581
341.605
341.591
341.538
341.446
341.317
341.15
340.947
340.708
340.434
340.127
339.787
339.417
339.016
338.586
338.129
337.647
337.139
336.609
336.057
335.485
334.894
334.285
333.66
333.02
332.366
331.698
331.019
330.327
329.625
328.912
328.188
327.454
326.71
325.954
325.187
324.407
323.613
322.804
321.978
321.132
320.263
319.369
318.445
317.488
316.491
315.448
314.352
313.192
311.959
310.636
309.204
307.634
305.887
303.892
301.519
301.696
304.42
306.765
308.86
310.773
312.544
314.2
315.76
317.238
318.644
319.987
321.274
322.509
323.697
324.843
325.949
327.017
328.049
329.047
330.012
330.945
331.847
332.717
333.557
334.365
335.142
335.887
336.6
337.28
337.927
338.54
339.118
339.661
340.167
340.636
341.067
341.46
341.814
342.128
342.402
342.634
342.826
342.977
343.086
343.154
343.18
343.165
343.109
343.013
342.877
342.702
342.489
342.238
341.951
341.628
341.272
340.882
340.462
340.011
339.531
339.024
338.492
337.935
337.356
336.755
336.135
335.496
334.84
334.168
333.481
332.781
332.068
331.343
330.607
329.859
329.101
328.332
327.552
326.761
325.959
325.143
324.313
323.468
322.605
321.723
320.818
319.887
318.926
317.931
316.897
315.816
314.682
313.485
312.213
310.851
309.38
307.772
305.985
303.951
301.539
301.722
304.498
306.894
309.041
311.005
312.827
314.534
316.144
317.672
319.127
320.518
321.852
323.135
324.37
325.561
326.711
327.823
328.899
329.939
330.945
331.919
332.86
333.768
334.645
335.489
336.301
337.079
337.825
338.536
339.213
339.854
340.458
341.026
341.556
342.047
342.498
342.91
343.28
343.608
343.895
344.139
344.34
344.498
344.612
344.683
344.711
344.695
344.637
344.537
344.394
344.211
343.988
343.725
343.425
343.087
342.714
342.307
341.866
341.394
340.892
340.361
339.804
339.221
338.615
337.987
337.337
336.669
335.982
335.28
334.561
333.829
333.083
332.325
331.555
330.774
329.982
329.179
328.365
327.539
326.701
325.851
324.986
324.106
323.208
322.29
321.349
320.383
319.386
318.356
317.285
316.168
314.998
313.764
312.455
311.056
309.548
307.903
306.079
304.007
301.558
301.746
304.572
307.019
309.215
311.229
313.1
314.855
316.514
318.089
319.591
321.029
322.41
323.737
325.017
326.253
327.447
328.601
329.719
330.8
331.847
332.86
333.839
334.785
335.698
336.577
337.423
338.235
339.012
339.753
340.459
341.127
341.758
342.35
342.903
343.416
343.887
344.316
344.703
345.046
345.345
345.6
345.81
345.975
346.094
346.168
346.197
346.181
346.121
346.016
345.868
345.677
345.444
345.17
344.856
344.504
344.114
343.689
343.229
342.736
342.212
341.659
341.077
340.469
339.836
339.18
338.502
337.805
337.089
336.355
335.606
334.842
334.065
333.274
332.471
331.657
330.832
329.995
329.147
328.288
327.417
326.532
325.633
324.719
323.787
322.834
321.859
320.858
319.827
318.762
317.656
316.505
315.299
314.03
312.686
311.252
309.708
308.028
306.168
304.061
301.576
301.77
304.644
307.138
309.382
311.443
313.361
315.164
316.869
318.49
320.038
321.521
322.946
324.318
325.641
326.92
328.156
329.352
330.51
331.631
332.717
333.768
334.785
335.767
336.715
337.629
338.508
339.352
340.16
340.931
341.665
342.361
343.017
343.634
344.209
344.742
345.233
345.68
346.082
346.44
346.751
347.017
347.235
347.407
347.532
347.609
347.64
347.623
347.56
347.451
347.297
347.098
346.856
346.571
346.244
345.878
345.472
345.029
344.55
344.038
343.492
342.916
342.31
341.677
341.018
340.335
339.63
338.904
338.159
337.396
336.616
335.821
335.012
334.19
333.356
332.509
331.651
330.782
329.902
329.009
328.105
327.187
326.255
325.308
324.342
323.357
322.348
321.314
320.249
319.151
318.012
316.826
315.587
314.284
312.907
311.439
309.861
308.147
306.253
304.112
301.593
301.793
304.713
307.253
309.542
311.649
313.613
315.46
317.21
318.875
320.467
321.994
323.462
324.876
326.242
327.562
328.838
330.075
331.272
332.433
333.557
334.645
335.698
336.715
337.698
338.645
339.557
340.432
341.27
342.07
342.832
343.554
344.235
344.875
345.472
346.026
346.536
347
347.418
347.789
348.113
348.389
348.616
348.795
348.925
349.005
349.037
349.02
348.955
348.842
348.682
348.475
348.224
347.928
347.589
347.208
346.787
346.327
345.83
345.297
344.73
344.132
343.503
342.845
342.161
341.452
340.72
339.966
339.192
338.4
337.591
336.766
335.927
335.074
334.208
333.33
332.441
331.54
330.627
329.703
328.767
327.817
326.853
325.873
324.875
323.858
322.817
321.75
320.654
319.523
318.351
317.134
315.862
314.527
313.117
311.617
310.007
308.26
306.334
304.16
301.609
301.815
304.779
307.363
309.696
311.846
313.854
315.744
317.537
319.245
320.879
322.448
323.958
325.413
326.819
328.179
329.495
330.77
332.006
333.204
334.365
335.489
336.577
337.629
338.645
339.625
340.568
341.474
342.341
343.169
343.958
344.705
345.411
346.074
346.693
347.266
347.794
348.275
348.709
349.094
349.429
349.715
349.951
350.136
350.271
350.355
350.388
350.371
350.303
350.186
350.021
349.807
349.546
349.24
348.888
348.494
348.058
347.581
347.066
346.514
345.927
345.307
344.655
343.974
343.265
342.53
341.772
340.991
340.189
339.369
338.531
337.677
336.808
335.925
335.029
334.121
333.2
332.269
331.325
330.37
329.402
328.421
327.426
326.415
325.386
324.338
323.266
322.168
321.041
319.878
318.676
317.428
316.125
314.76
313.318
311.787
310.147
308.368
306.411
304.207
301.624
301.836
304.842
307.468
309.844
312.036
314.084
316.016
317.85
319.599
321.274
322.883
324.433
325.928
327.373
328.771
330.126
331.438
332.711
333.945
335.142
336.301
337.423
338.508
339.557
340.568
341.542
342.477
343.373
344.228
345.043
345.815
346.544
347.229
347.869
348.462
349.008
349.506
349.954
350.352
350.699
350.995
351.239
351.431
351.57
351.657
351.692
351.674
351.604
351.484
351.313
351.092
350.822
350.506
350.143
349.735
349.284
348.791
348.258
347.688
347.081
346.439
345.766
345.062
344.329
343.569
342.785
341.978
341.15
340.302
339.436
338.553
337.655
336.743
335.818
334.88
333.93
332.968
331.995
331.01
330.012
329.001
327.976
326.935
325.876
324.797
323.695
322.568
321.41
320.219
318.987
317.709
316.376
314.981
313.51
311.95
310.279
308.472
306.485
304.251
301.639
301.857
304.903
307.569
309.984
312.216
314.305
316.277
318.15
319.939
321.653
323.3
324.888
326.421
327.904
329.339
330.73
332.079
333.387
334.656
335.887
337.079
338.235
339.352
340.432
341.474
342.477
343.44
344.364
345.246
346.086
346.882
347.634
348.341
349.001
349.613
350.176
350.689
351.152
351.563
351.921
352.227
352.479
352.677
352.821
352.911
352.947
352.929
352.857
352.733
352.557
352.329
352.051
351.724
351.35
350.929
350.464
349.956
349.406
348.817
348.191
347.529
346.834
346.108
345.352
344.568
343.759
342.927
342.072
341.198
340.305
339.395
338.469
337.529
336.575
335.609
334.63
333.639
332.637
331.622
330.596
329.556
328.501
327.431
326.344
325.236
324.106
322.95
321.764
320.543
319.283
317.976
316.616
315.192
313.693
312.104
310.406
308.57
306.555
304.293
301.653
301.876
304.96
307.665
310.119
312.389
314.516
316.525
318.437
320.263
322.014
323.698
325.323
326.892
328.411
329.882
331.308
332.691
334.034
335.336
336.6
337.825
339.012
340.16
341.27
342.341
343.373
344.364
345.313
346.221
347.085
347.905
348.679
349.407
350.086
350.716
351.296
351.825
352.301
352.725
353.094
353.409
353.669
353.873
354.022
354.115
354.152
354.134
354.06
353.932
353.751
353.517
353.231
352.894
352.509
352.076
351.597
351.073
350.508
349.901
349.257
348.575
347.859
347.111
346.333
345.526
344.693
343.836
342.957
342.057
341.137
340.201
339.248
338.281
337.3
336.306
335.299
334.281
333.251
332.208
331.154
330.086
329.004
327.906
326.79
325.655
324.497
323.313
322.1
320.852
319.565
318.231
316.844
315.393
313.867
312.251
310.526
308.664
306.622
304.333
301.667
301.894
305.015
307.756
310.247
312.553
314.716
316.762
318.709
320.571
322.358
324.078
325.737
327.341
328.894
330.399
331.859
333.275
334.65
335.985
337.28
338.536
339.753
340.931
342.07
343.169
344.228
345.246
346.221
347.153
348.041
348.883
349.678
350.426
351.124
351.772
352.368
352.911
353.401
353.837
354.217
354.541
354.808
355.018
355.171
355.267
355.305
355.287
355.212
355.081
354.894
354.654
354.36
354.014
353.618
353.173
352.681
352.143
351.562
350.939
350.276
349.576
348.84
348.071
347.272
346.443
345.587
344.706
343.802
342.877
341.933
340.971
339.993
338.999
337.992
336.971
335.938
334.893
333.836
332.767
331.685
330.591
329.482
328.357
327.215
326.054
324.869
323.66
322.42
321.146
319.833
318.473
317.06
315.584
314.032
312.391
310.64
308.752
306.686
304.371
301.679
301.911
305.067
307.843
310.368
312.709
314.907
316.987
318.968
320.864
322.684
324.438
326.13
327.767
329.353
330.89
332.382
333.83
335.236
336.602
337.927
339.213
340.459
341.665
342.832
343.958
345.043
346.086
347.085
348.041
348.951
349.815
350.63
351.397
352.113
352.778
353.389
353.947
354.45
354.897
355.287
355.62
355.894
356.11
356.267
356.366
356.406
356.387
356.31
356.176
355.985
355.738
355.437
355.083
354.677
354.22
353.715
353.164
352.567
351.928
351.248
350.53
349.776
348.987
348.166
347.316
346.438
345.535
344.608
343.659
342.691
341.705
340.701
339.683
338.65
337.604
336.546
335.475
334.392
333.298
332.191
331.071
329.936
328.786
327.619
326.432
325.223
323.988
322.723
321.425
320.087
318.703
317.265
315.764
314.189
312.523
310.748
308.836
306.746
304.407
301.691
301.928
305.116
307.925
310.483
312.856
315.086
317.199
319.212
321.14
322.993
324.778
326.502
328.171
329.787
331.355
332.877
334.356
335.791
337.186
338.54
339.854
341.127
342.361
343.554
344.705
345.815
346.882
347.905
348.883
349.815
350.699
351.534
352.319
353.052
353.733
354.359
354.931
355.446
355.904
356.304
356.644
356.926
357.147
357.309
357.41
357.451
357.432
357.354
357.217
357.021
356.769
356.461
356.098
355.683
355.215
354.698
354.133
353.523
352.868
352.172
351.437
350.664
349.856
349.016
348.145
347.247
346.322
345.373
344.402
343.41
342.401
341.374
340.332
339.275
338.205
337.122
336.027
334.92
333.801
332.67
331.525
330.367
329.192
328.001
326.79
325.557
324.298
323.01
321.688
320.327
318.92
317.459
315.935
314.336
312.648
310.851
308.916
306.802
304.441
301.703
301.943
305.163
308.002
310.591
312.995
315.256
317.399
319.443
321.401
323.284
325.099
326.853
328.551
330.197
331.794
333.345
334.851
336.315
337.737
339.118
340.458
341.758
343.017
344.235
345.411
346.544
347.634
348.679
349.678
350.63
351.534
352.387
353.19
353.94
354.635
355.276
355.861
356.387
356.856
357.265
357.614
357.902
358.129
358.294
358.398
358.44
358.421
358.341
358.201
358.002
357.744
357.43
357.059
356.634
356.156
355.628
355.051
354.427
353.758
353.046
352.294
351.504
350.679
349.82
348.93
348.011
347.065
346.096
345.103
344.09
343.058
342.009
340.944
339.865
338.772
337.666
336.548
335.418
334.276
333.121
331.954
330.772
329.575
328.361
327.128
325.872
324.591
323.281
321.936
320.553
319.124
317.641
316.096
314.475
312.766
310.947
308.99
306.855
304.473
301.713
301.958
305.206
308.075
310.692
313.125
315.415
317.586
319.659
321.645
323.556
325.4
327.182
328.907
330.581
332.205
333.783
335.316
336.806
338.254
339.661
341.026
342.35
343.634
344.875
346.074
347.229
348.341
349.407
350.426
351.397
352.319
353.19
354.009
354.774
355.484
356.138
356.735
357.273
357.751
358.169
358.525
358.82
359.052
359.221
359.327
359.371
359.352
359.271
359.128
358.925
358.662
358.341
357.963
357.53
357.042
356.503
355.914
355.277
354.595
353.868
353.101
352.295
351.453
350.576
349.668
348.73
347.765
346.776
345.763
344.73
343.677
342.607
341.521
340.42
339.305
338.178
337.038
335.886
334.722
333.546
332.357
331.153
329.935
328.699
327.444
326.168
324.865
323.534
322.169
320.765
319.315
317.812
316.246
314.606
312.876
311.037
309.06
306.905
304.503
301.723
301.971
305.246
308.142
310.786
313.246
315.562
317.761
319.86
321.873
323.81
325.68
327.488
329.24
330.939
332.588
334.191
335.749
337.264
338.736
340.167
341.556
342.903
344.209
345.472
346.693
347.869
349.001
350.086
351.124
352.113
353.052
353.94
354.774
355.554
356.278
356.944
357.553
358.101
358.589
359.015
359.378
359.678
359.915
360.088
360.197
360.241
360.222
360.14
359.995
359.788
359.521
359.194
358.809
358.368
357.872
357.322
356.722
356.073
355.378
354.638
353.856
353.035
352.177
351.284
350.358
349.403
348.42
347.412
346.381
345.328
344.256
343.166
342.059
340.938
339.803
338.656
337.495
336.323
335.139
333.942
332.733
331.509
330.271
329.015
327.74
326.444
325.122
323.771
322.386
320.963
319.494
317.972
316.387
314.727
312.978
311.12
309.125
306.952
304.531
301.732
301.984
305.284
308.204
310.873
313.358
315.699
317.922
320.046
322.084
324.046
325.939
327.772
329.547
331.27
332.943
334.57
336.151
337.689
339.183
340.636
342.047
343.416
344.742
346.026
347.266
348.462
349.613
350.716
351.772
352.778
353.733
354.635
355.484
356.278
357.014
357.693
358.312
358.87
359.366
359.8
360.17
360.476
360.717
360.894
361.005
361.05
361.031
360.948
360.801
360.591
360.319
359.987
359.596
359.147
358.642
358.084
357.474
356.814
356.106
355.354
354.559
353.723
352.85
351.942
351
350.029
349.029
348.004
346.954
345.884
344.793
343.685
342.56
341.42
340.267
339.1
337.921
336.729
335.526
334.31
333.082
331.84
330.582
329.308
328.015
326.7
325.359
323.99
322.588
321.146
319.659
318.119
316.517
314.84
313.074
311.198
309.186
306.995
304.557
301.741
301.995
305.318
308.261
310.953
313.461
315.825
318.071
320.217
322.277
324.262
326.178
328.032
329.83
331.575
333.27
334.918
336.52
338.079
339.594
341.067
342.498
343.887
345.233
346.536
347.794
349.008
350.176
351.296
352.368
353.389
354.359
355.276
356.138
356.944
357.693
358.382
359.011
359.578
360.083
360.524
360.9
361.211
361.457
361.636
361.749
361.796
361.777
361.693
361.544
361.331
361.056
360.719
360.321
359.866
359.353
358.786
358.167
357.496
356.778
356.014
355.206
354.358
353.471
352.549
351.593
350.606
349.591
348.549
347.484
346.397
345.289
344.164
343.022
341.865
340.694
339.509
338.313
337.104
335.883
334.65
333.404
332.144
330.87
329.578
328.268
326.936
325.579
324.193
322.773
321.315
319.812
318.256
316.637
314.944
313.161
311.27
309.242
307.035
304.581
301.749
302.006
305.349
308.313
311.026
313.555
315.939
318.206
320.373
322.453
324.458
326.395
328.269
330.087
331.852
333.567
335.234
336.856
338.434
339.968
341.46
342.91
344.316
345.68
347
348.275
349.506
350.689
351.825
352.911
353.947
354.931
355.861
356.735
357.553
358.312
359.011
359.649
360.225
360.737
361.185
361.567
361.883
362.132
362.314
362.43
362.478
362.459
362.374
362.223
362.008
361.728
361.387
360.984
360.523
360.003
359.428
358.8
358.121
357.392
356.617
355.799
354.938
354.039
353.104
352.134
351.134
350.104
349.048
347.968
346.866
345.743
344.602
343.444
342.271
341.084
339.884
338.671
337.446
336.209
334.96
333.698
332.423
331.132
329.825
328.499
327.151
325.779
324.377
322.943
321.47
319.951
318.38
316.746
315.038
313.241
311.335
309.292
307.071
304.602
301.756
302.015
305.377
308.36
311.092
313.639
316.042
318.327
320.513
322.612
324.635
326.59
328.483
330.319
332.101
333.834
335.519
337.159
338.754
340.305