/*--------------------------------*- C++ -*----------------------------------*\
  =========                 |
  \\      /  F ield         | OpenFOAM: The Open Source CFD Toolbox
   \\    /   O peration     | Website:  https://openfoam.org
    \\  /    A nd           | Version:  9
     \\/     M anipulation  |
\*---------------------------------------------------------------------------*/
FoamFile
{
    format      ascii;
    class       volScalarField;
    location    "0.15";
    object      gradTy;
}
// * * * * * * * * * * * * * * * * * * * * * * * * * * * * * * * * * * * * * //

dimensions      [0 -1 0 1 0 0 0];

internalField   nonuniform List<scalar> 
200000
(
4965.63
9864.05
12811.6
14843.6
16375.1
17601.7
18628.6
19518.3
20311.3
21035.2
21709.8
22349.7
22965.9
23566.9
24159
24747.4
25335.6
25926.4
26521.5
27122
27728.1
28339.7
28955.8
29575.3
30196.2
30816.6
31434
32045.5
32648.2
33238.9
33814.3
34370.8
34905
35413.3
35892.4
36338.7
36749.2
37120.8
37450.6
37736.2
37975.2
38165.9
38306.7
38396.5
38434.5
38420.4
38354.3
38236.8
38068.8
37851.6
37587
37277
36924.1
36531
36100.8
35636.5
35141.7
34619.8
34074.6
33509.8
32929
32336.1
31734.5
31128
30519.8
29913.2
29311.3
28716.8
28132.2
27560
27001.9
26459.9
25935.2
25428.9
24941.7
24474.1
24026.1
23597.4
23187.4
22794.9
22418.7
22056.7
21706.7
21365.8
21030.6
20696.9
20359.6
20012.8
19649.1
19259.4
18832
18352.1
17799.8
17147.4
16354.6
15359.2
14056.3
12250.8
9528.19
4853.78
2241.03
5604.98
8040.29
9869.52
11307.9
12486.4
13486.3
14360.2
15143.6
15861.8
16533.2
17171.6
17787.6
18389.2
18982.7
19572.9
20163.5
20756.9
21355
21958.7
22568.3
23183.5
23803.4
24426.7
25051.7
25676.1
26297.5
26913.2
27520
28114.7
28694.1
29254.5
29792.4
30304.4
30786.8
31236.5
31650
32024.3
32356.6
32644.4
32885.3
33077.6
33219.6
33310.3
33348.8
33334.9
33268.6
33150.5
32981.6
32763.2
32497
32185.1
31830
31434.4
31001.4
30534.1
30036
29510.7
28961.8
28393.2
27808.5
27211.5
26605.9
25995.2
25382.9
24772.1
24166.1
23567.5
22978.9
22402.7
21840.9
21295.1
20766.8
20257.1
19766.7
19296
18845
18413.6
18001.1
17606.3
17228
16864.3
16512.8
16170.7
15834.6
15500.5
15163.4
14817.5
14455.5
14068.7
13646
13173.2
12631.9
11996.7
11232.2
10286.2
9077.7
7476.27
5267.2
2128.54
1320.1
3659.44
5584.64
7154.98
8454.83
9555.02
10508.5
11354.1
12120.2
12828
13493.6
14129.4
14745
15348
15944.3
16538.3
17133.5
17732.3
18336.4
18946.5
19562.9
20185.3
20812.7
21443.8
22076.7
22709.2
23338.8
23962.6
24577.5
25180.3
25767.6
26335.7
26881.2
27400.3
27889.6
28345.7
28765.2
29145
29482.3
29774.5
30019.2
30214.6
30359.1
30451.5
30491.1
30477.5
30410.9
30291.7
30121
29900.1
29630.7
29315.1
28955.5
28555
28116.4
27643
27138.5
26606.3
26050.2
25474
24881.5
24276.5
23662.7
23043.8
22423.2
21804.2
21189.9
20583.1
19986.6
19402.5
18833.1
18279.9
17744.5
17228
16731
16254.1
15797.4
15360.6
14943
14543.7
14161.3
13794
13439.4
13095
12757.3
12422.3
12085.5
11741.1
11382.4
11001.1
10587.1
10127.5
9606.29
9002.1
8286.68
7421.6
6354.24
5014.27
3317.87
1206.35
916.29
2647.19
4183.9
5517.38
6672.98
7684
8581.53
9391.67
10135.5
10829.7
11487.8
12120.5
12736.1
13341.5
13942
14541.8
15144.1
15750.9
16363.8
16983.6
17610.3
18243.4
18882
19524.6
20169.3
20813.8
21455.5
22091.5
22718.5
23333.4
23932.4
24512.1
25068.7
25598.5
26098.1
26563.7
26992.2
27380.2
27724.9
28023.6
28273.9
28474
28622.2
28717.2
28758.4
28745.3
28678.2
28557.4
28384
28159.4
27885.4
27564
27197.9
26789.9
26343.1
25860.8
25346.5
24804.1
24237.2
23649.8
23045.7
22428.8
21802.9
21171.7
20538.8
19907.5
19280.9
18662
18053.6
17457.9
16877.1
16312.9
15766.9
15240.2
14733.5
14247.4
13782.1
13337.2
12912.1
12506
12117.4
11744.7
11385.6
11037.5
10697.3
10361
10024.4
9681.98
9327.63
8953.82
8551.49
8109.67
7614.8
7050.1
6394.64
5622.64
4703.4
3604.1
2299.97
800.66
700.196
2057.93
3317.11
4457.97
5483.73
6408.18
7248.31
8020.73
8740.32
9419.83
10069.9
10699.6
11315.9
11925
12531.6
13139.2
13750.9
14368.4
14993.2
15625.6
16265.9
16913.2
17566.6
18224.4
18884.7
19545
20202.7
20854.7
21497.8
22128.5
22743.1
23337.9
23909.3
24453.3
24966.3
25444.6
25884.9
26283.7
26638.2
26945.5
27203.3
27409.5
27562.5
27661.1
27704.4
27692
27624.1
27501.3
27324.4
27094.9
26814.7
26485.9
26111.2
25693.4
25235.7
24741.5
24214.6
23658.6
23077.5
22475.2
21855.8
21223.3
20581.4
19934
19284.8
18637.3
17994.5
17359.7
16735.5
16124.4
15528.6
14950
14389.9
13849.8
13330.3
12832.1
12355.3
11899.7
11464.8
11049.6
10653
10273.1
9907.91
9554.91
9211.07
8872.82
8536.01
8195.76
7846.4
7481.26
7092.51
6670.94
6205.68
5684
5091.17
4410.89
3626.56
2724.9
1703.28
582.091
568.633
1684.81
2747.06
3738.52
4655.62
5503.1
6289.82
7026.08
7722.08
8387.27
9030.01
9657.52
10275.9
10890.2
11504.6
12122.3
12745.8
13376.7
14016.1
14664.3
15321.3
15986.2
16657.8
17334.4
18013.9
18693.8
19371.2
20043
20705.8
21356
21989.8
22603.4
23192.9
23754.4
24284
24778
25232.7
25645
26011.5
26329.5
26596.5
26810.3
26969.3
27072.2
27118.1
27106.7
27038
26912.5
26731.4
26495.9
26208.1
25870.2
25484.8
25054.9
24583.9
24075.1
23532.5
22959.8
22361.2
21740.7
21102.5
20450.5
19789
19121.7
18452.5
17784.8
17122.2
16467.7
15824.1
15194.1
14579.8
13983.2
13405.9
12849.2
12314
11800.8
11309.9
10841.1
10393.9
9967.57
9560.8
9171.99
8799.18
8439.95
8091.46
7750.4
7412.9
7074.55
6730.25
6374.18
5999.67
5599.16
5164.13
4685.14
4152.13
3555.13
2885.7
2139.61
1321.03
447.491
482.036
1434.51
2355.77
3233.63
4063.43
4846.18
5586.41
6290.47
6965.37
7618.04
8254.95
8881.9
9503.94
10125.3
10749.6
11379.6
12017.3
12664.1
13320.9
13987.9
14664.7
15350.3
16043.4
16742.3
17444.4
18147.4
18848
19543.2
20229.2
20902.4
21558.9
22194.6
22805.5
23387.6
23936.8
24449.2
24921.2
25349.2
25730
26060.6
26338.5
26561.3
26727.5
26835.5
26884.5
26874.2
26804.5
26676
26489.9
26247.4
25950.7
25602
25204.1
24760
24273.2
23747.3
23186.2
22593.9
21974.7
21332.7
20672.2
19997.5
19312.7
18621.9
17929.1
17237.8
16551.7
15874
15207.6
14555.1
13919.1
13301.3
12703.7
12127.4
11573.5
11042.7
10535.1
10050.7
9589.05
9149.42
8730.64
8331.19
7949.19
7582.38
7228.09
6883.24
6544.3
6207.26
5867.6
5520.28
5159.66
4779.61
4373.46
3934.32
3455.34
2930.49
2355.67
1730.42
1060.02
357.327
422.37
1260.35
2079.63
2872.02
3633.57
4364.03
5065.82
5743
6400.45
7043.32
7676.63
8305.04
8932.7
9563.19
10199.5
10843.9
11498.2
12163.6
12840.5
13528.9
14228.4
14937.8
15655.6
16379.7
17107.8
17837.1
18564.4
19286.2
19998.8
20698.3
21380.7
22041.7
22677.1
23282.7
23854.3
24387.8
24879.5
25325.6
25722.6
26067.7
26358
26591.2
26765.5
26879.4
26932.1
26923
26852.3
26720.5
26528.6
26278.2
25971.4
25610.4
25198.2
24738
24233.2
23687.8
23105.6
22490.9
21848.1
21181.6
20495.7
19795
19083.7
18366.1
17646.3
16928.1
16215.1
15510.8
14818.3
14140.3
13479.3
12837.5
12216.6
11617.9
11042.7
10491.6
9964.9
9462.63
8984.42
8529.54
8096.93
7685.16
7292.46
6916.7
6555.38
6205.67
5864.32
5527.72
5191.86
4852.37
4504.52
4143.26
3763.43
3359.88
2927.9
2463.76
1965.51
1433.96
873.691
293.609
380.236
1136.69
1881.88
2610.56
3319.95
4009.65
4681.15
5337.22
5981.47
6617.8
7250.2
7882.41
8517.88
9159.59
9810.02
10471.1
11144.4
11830.6
12530.1
13242.6
13967.5
14703.4
15448.7
16201.1
16958.2
17716.8
18473.7
19225.2
19967.5
20696.3
21407.6
22096.7
22759.5
23391.3
23988
24545.1
25058.7
25524.9
25940.3
26301.4
26605.6
26850.5
27033.9
27154.5
27211.3
27203.7
27131.9
26996.4
26798.2
26539
26220.9
25846.4
25418.3
24940.1
24415.4
23848.2
23242.5
22603
21933.9
21240.1
20526
19796.2
19055.4
18308
17558.1
16809.8
16067
15333.1
14611.5
13905
13216.3
12547.5
11900.6
11277
10678
10104.2
9556.23
9033.97
8537.17
8065.19
7617.02
7191.33
6786.45
6400.38
6030.79
5675.05
5330.18
4992.91
4659.7
4326.71
3989.93
3645.19
3288.37
2915.55
2523.35
2109.31
1672.43
1213.7
736.557
246.988
350.216
1048.32
1739.85
2421.69
3092.22
3751.32
4400.16
5040.9
5676.34
6309.63
6943.97
7582.48
8228.02
8883.09
9549.79
10229.7
10924
11633.3
12357.7
13096.7
13849.4
14614.4
15389.7
16173.1
16961.8
17752.5
18541.8
19325.8
20100.4
20861.3
21604.1
22324.1
23016.7
23677.3
24301.3
24884.2
25421.9
25910.2
26345.5
26724.4
27043.8
27301.4
27494.9
27622.9
27684.2
27678.4
27605.4
27465.9
27260.9
26992.2
26661.9
26272.6
25827.3
25329.5
24783
24192.1
23560.9
22894.2
22196.5
21472.8
20727.9
19966.5
19193.5
18413.4
17630.7
16849.6
16074.1
15307.9
14554.5
13816.9
13097.8
12399.6
11724.3
11073.5
10448.4
9849.91
9278.52
8734.35
8217.16
7726.36
7261.04
6819.93
6401.47
6003.77
5624.67
5261.68
4912.09
4572.92
4240.97
3912.87
3585.15
3254.3
2916.91
2569.89
2210.62
1837.31
1449.28
1047.26
633.572
212.104
328.933
985.569
1638.76
2286.95
2929.48
3566.68
4199.73
4830.53
5461.46
6095.14
6734.31
7381.59
8039.43
8709.95
9394.9
10095.6
10813
11547.3
12298.6
13066.2
13848.9
14645.1
15452.9
16269.5
17092.1
17917.3
18741.4
19560.3
20369.7
21165.1
21941.7
22694.9
23419.6
24111
24764.4
25375.1
25938.6
26450.8
26907.6
27305.5
27641.5
27912.8
28117.3
28253.2
28319.5
28315.6
28241.5
28097.9
27885.7
27606.9
27263.5
26858.4
26394.6
25875.9
25306.2
24689.8
24031.3
23335.4
22607.1
21851.4
21073.4
20278.1
19470.5
18655.4
17837.5
17021.1
16210.6
15409.7
14622.1
13851.1
13099.4
12369.5
11663.7
10983.5
10330.4
9705.34
9108.8
8541.01
8001.8
7490.67
7006.74
6548.86
6115.52
5704.96
5315.12
4943.69
4588.15
4245.75
3913.58
3588.62
3267.81
2948.08
2626.55
2300.6
1968.07
1627.44
1278.03
920.184
555.268
185.641
314.141
941.953
1568.5
2193.37
2816.74
3439.37
4062.63
4688.35
5318.7
5956.04
6602.75
7261.16
7933.38
8621.25
9326.26
10049.5
10791.6
11552.8
12332.8
13130.7
13945.2
14774.6
15616.6
16468.4
17326.9
18188.6
19049.5
19905.3
20751.5
21583.3
22395.9
23184.1
23942.8
24667
25351.5
25991.7
26582.6
27120
27599.6
28017.9
28371.4
28657.4
28873.5
29018
29089.7
29087.9
29012.8
28864.8
28645.2
28355.7
27998.7
27576.9
27093.8
26553
25958.8
25315.6
24628.2
23901.6
23140.9
22351.5
21538.6
20707.4
19863.2
19011.1
18155.9
17302.3
16454.7
15617.1
14793.4
13986.9
13200.7
12437.4
11699.3
10988.1
10305.3
9651.96
9028.73
8435.86
7873.26
7340.47
6836.69
6360.82
5911.45
5486.89
5085.19
4704.18
4341.47
3994.52
3660.63
3337.04
3020.97
2709.68
2400.6
2091.39
1780.12
1465.34
1146.24
822.714
495.365
165.427
304.269
912.882
1521.81
2131.52
2742.84
3357
3975.56
4600.43
5233.71
5877.6
6534.32
7205.96
7894.41
8601.31
9327.94
10075.2
10843.5
11632.9
12443
13272.6
14120.4
14984.4
15862.1
16750.7
17646.7
18546.4
19445.6
20339.9
21224.5
22094.4
22944.4
23769.2
24563.5
25321.8
26039
26709.9
27329.5
27893.3
28396.9
28836.4
29208.4
29509.8
29738.2
29891.7
29969.2
29969.9
29893.7
29741.4
29514.2
29213.7
28842.6
28403.6
27900.4
27336.7
26717
26046
25328.5
24570
23775.6
22951
22101.7
21233.2
20351
19460.3
18566.2
17673.8
16787.5
15911.7
15050.3
14206.8
13384.6
12586.4
11814.4
11070.8
10357
9674.19
9023.05
8403.93
7816.8
7261.26
6736.59
6241.73
5775.33
5335.78
4921.22
4529.58
4158.58
3805.81
3468.76
3144.83
2831.44
2526.06
2226.3
1929.97
1635.22
1340.56
1044.98
747.974
449.503
149.964
298.161
894.965
1493.27
2094.23
2699.22
3309.85
3927.95
4555.53
5194.72
5847.67
6516.49
7203.14
7909.38
8636.67
9386.14
10158.5
10954.2
11772.8
12614
13476.4
14358.5
15258.1
16172.7
17099
18033.6
18972.4
19911.2
20845.1
21769.2
22678.3
23566.9
24429.4
25260.2
26053.8
26804.6
27507.3
28156.6
28747.7
29276
29737.5
30128.6
30446
30687.2
30850.3
30933.8
30937.1
30860.2
30703.6
30468.5
30157
29771.5
29315
28791.2
28204.1
27558.3
26858.7
26110.5
25319.1
24490.2
23629.5
22742.8
21835.9
20914.5
19984.2
19050.2
18117.8
17191.7
16276.5
15376.3
14494.8
13635.5
12801.3
11994.6
11217.5
10471.7
9758.48
9078.52
8432.28
7819.78
7240.69
6694.32
6179.67
5695.46
5240.12
4811.85
4408.66
4028.36
3668.65
3327.1
3001.26
2688.67
2386.9
2093.67
1806.85
1524.58
1245.27
967.688
690.957
414.539
138.181
294.934
885.598
1478.68
2075.88
2679.04
3290.09
3911.13
4544.32
5191.85
5855.88
6538.49
7241.56
7966.75
8715.44
9488.62
10286.9
11110.5
11959.1
12832
13727.8
14644.7
15580.6
16532.5
17497.2
18470.9
19449.5
20428.3
21402.5
22366.8
23315.7
24243.5
25144.3
26012.4
26841.9
27626.9
28361.9
29041.5
29660.4
30214.1
30698.1
31108.7
31442.6
31697
31869.9
31959.8
31966
31888.4
31727.6
31484.9
31162.3
30762.4
30288.2
29743.7
29133
28460.9
27732.4
26953
26128.4
25264.5
24367.2
23442.7
22496.9
21535.8
20565.2
19590.7
18617.7
17651.2
16696
15756.3
14836.3
13939.2
13068.4
12226.3
11415.3
10636.9
9892.67
9183.35
8509.45
7871.06
7267.88
6699.29
6164.32
5661.72
5189.98
4747.35
4331.88
3941.45
3573.81
3226.62
2897.48
2584.01
2283.84
1994.72
1714.53
1441.33
1173.42
909.342
647.896
388.128
129.279
293.887
882.705
1474.67
2071.94
2676.7
3291.24
3917.86
4558.88
5216.6
5893.24
6590.85
7311.31
8056.23
8826.9
9624.24
10448.8
11300.6
12179.3
13084
14013.3
14965.2
15937.3
16926.7
17929.8
18942.7
19961.1
20980.1
21994.7
22999.2
23988
24955.1
25894.5
26800
27665.5
28485
29252.5
29962.5
30609.5
31188.7
31695.5
32125.9
32476.5
32744.3
32927.3
33023.8
33033.1
32955.1
32790.4
32540.2
32206.7
31792.5
31300.9
30735.8
30101.6
29403.3
28646
27835.6
26977.8
26078.9
25145.1
24182.7
23197.9
22197.1
21186.2
20171.1
19157.5
18150.5
17155.2
16176
15217.2
14282.4
13374.8
12497.2
11652
10841
10065.6
9326.74
8625.01
7960.54
7333.07
6742.02
6186.46
5665.17
5176.67
4719.24
4290.97
3889.76
3513.42
3159.62
2826.03
2510.27
2209.99
1922.94
1646.95
1380.01
1120.26
866.037
615.874
368.466
122.649
294.444
884.579
1478.46
2078.6
2687.52
3307.77
3941.88
4592.33
5261.53
5951.76
6665.12
7403.48
8168.44
8961.24
9782.75
10633.4
11513.3
12421.8
13358
14320.3
15306.8
16314.7
17341
18382
19433.7
20491.4
21550.1
22604.5
23648.8
24677.1
25683.1
26660.6
27603.1
28504.4
29358
30157.9
30898.1
31573.1
32177.7
32707.2
33157.4
33524.7
33806.1
33999.2
34102.5
34115.2
34037
33868.6
33611.4
33267.4
32839.3
32330.7
31745.5
31088.3
30364.2
29578.7
28737.7
27847.4
26914
25944.2
24944.4
23921.3
22881.3
21830.6
20775.5
19721.7
18674.7
17639.8
16621.5
15624.4
14652.1
13708.2
12795.5
11916.5
11073.1
10266.8
9498.67
8769.33
8078.94
7427.31
6813.89
6237.77
5697.76
5192.39
4719.98
4278.61
3866.22
3480.61
3119.49
2780.52
2461.33
2159.56
1872.9
1599.14
1336.14
1081.93
834.652
592.582
354.132
117.81
296.123
889.783
1487.68
2092.64
2707.45
3334.92
3977.75
4638.6
5319.99
6024.28
6753.62
7509.92
8294.75
9109.36
9954.57
10830.8
11738
12675.5
13642.3
14636.8
15656.8
16699.5
17761.6
18839.5
19928.8
21024.7
22122
23215.2
24298.2
25365
26409
27423.6
28402.4
29338.5
30225.5
31057
31826.8
32529.3
33158.9
33710.7
34180.5
34564.3
34859.1
35062.5
35172.8
35189
35111
34939.3
34675.5
34321.5
33880.3
33355.3
32750.8
32071.5
31322.6
30509.8
29639.3
28717.4
27750.7
26745.9
25709.9
24649.5
23571.4
22482.1
21388
20295.2
19209.3
18135.7
17079.5
16045
15036.2
14056.9
13109.9
12197.9
11322.9
10486.4
9689.72
8933.37
8217.62
7542.33
6906.95
6310.62
5752.15
5230.09
4742.76
4288.26
3864.51
3469.34
3100.43
2755.43
2431.95
2127.6
1840.02
1566.91
1306.04
1055.3
812.638
576.143
343.977
114.376
298.508
897.077
1500.3
2111.25
2732.97
3368.46
4020.62
4692.25
5385.98
6104.27
6849.33
7623.09
8427.16
9262.76
10130.7
11031.4
11964.7
12929.9
13926
14951.1
16003
17078.9
18175.3
19288.4
20413.6
21546
22680.2
23810.5
24930.6
26034.2
27114.6
28164.9
29178.4
30148
31067.2
31929.1
32727.6
33456.5
34110.3
34683.8
35172.6
35572.6
35880.6
36094.2
36211.4
36231.4
36153.8
35979.5
35709.6
35346.5
34893
34352.7
33730
33029.8
32257.4
31418.8
30520.2
29568.3
28569.8
27531.8
26461.3
25365.3
24250.8
23124.6
21993.3
20863.1
19739.9
18629.4
17536.7
16466.4
15422.8
14409.4
13429.6
12485.9
11580.5
10715.1
9890.93
9108.61
8368.46
7670.36
7013.8
6397.93
5821.59
5283.31
4781.42
4314.01
3879.01
3474.21
3097.3
2745.89
2417.55
2109.85
1820.37
1546.73
1286.59
1037.7
797.878
565.01
337.057
112.029
301.235
905.374
1514.51
2131.95
2760.94
3404.65
4066.15
4748.37
5454.07
6185.78
6945.77
7736.04
8558.19
9413.49
10302.7
11226.2
12183.9
13175
14198.3
15252.1
16333.8
17440.7
18569.1
19715.1
20873.9
22040.5
23209.3
24374.3
25529.3
26667.5
27782.1
28866
29912.2
30913.5
31863
32753.8
33579.3
34333.4
35010.2
35604.4
36111.4
36527
36847.8
37071.2
37195.4
37219.3
37142.7
36966.1
36691.1
36319.7
35855.1
35300.9
34661.5
33941.9
33147.8
32285.2
31360.5
30380.7
29352.6
28283.5
27180.8
26051.5
24903
23742.3
22576
21410.8
20252.7
19107.6
17980.6
16876.7
15800.2
14754.9
13744.1
12770.6
11836.6
10944
10093.8
9286.98
8523.79
7804.13
7127.53
6493.14
5899.81
5346.09
4830.28
4350.48
3904.59
3490.38
3105.52
2747.58
2414.11
2102.6
1810.57
1535.55
1275.13
1026.91
788.588
557.883
332.58
110.503
303.981
913.712
1528.74
2152.54
2788.55
3440.1
4110.4
4802.5
5519.25
6263.29
7036.95
7842.26
8680.88
9554.05
10462.6
11406.9
12386.6
13401.2
14449.3
15529
16637.9
17773
18930.6
20106.5
21296
22493.8
23694.2
24891.2
26078
27248
28394
29508.8
30585.1
31615.7
32593.3
33510.8
34361.5
35138.9
35837.2
36450.8
36974.9
37405.2
37738.2
37971.2
38102.2
38130.2
38054.9
37876.9
37597.5
37219.1
36744.7
36178.1
35523.8
34786.9
33973.2
33089
32140.7
31135.5
30080.6
28983.3
27851.1
26691.6
25512
24319.7
23121.5
21924.2
20734.1
19557.1
18398.8
17264
16157.3
15082.6
14043.3
13042.4
12082.1
11164.3
10290.2
9460.81
8676.33
7936.76
7241.62
6590.09
5981.01
5412.93
4884.15
4392.74
3936.6
3513.47
3120.98
2756.68
2418.06
2102.56
1807.63
1530.74
1269.36
1021.01
783.242
553.654
329.876
109.573
306.46
921.23
1541.54
2171.03
2813.28
3471.75
4149.79
4850.54
5576.97
6331.76
7117.33
7935.74
8788.69
9677.46
10602.9
11565.2
12564.3
13599.4
14669.2
15771.7
16904.5
18064.4
19247.6
20450
21666.6
22892.1
24120.6
25345.8
26561.1
27759.3
28933.4
30075.9
31179.2
32236
33238.8
34180.4
35053.9
35852.6
36570.4
37201.7
37741.5
38185.4
38529.8
38771.9
38909.7
38941.9
38868.4
38689.5
38406.9
38022.8
37540.2
36963.1
36296
35544.3
34713.6
33810.5
32841.7
31814.2
30735.7
29613.5
28455.5
27269.1
26062
24841.7
23615.2
22389.4
21170.8
19965.5
18779.2
17616.9
16483.3
15382.3
14317.6
13292.2
12308.3
11368
10472.5
9622.81
8819.24
8061.78
7349.98
6683.03
6059.75
5478.72
4938.2
4436.27
3970.8
3539.5
3139.98
2769.73
2426.22
2106.83
1808.95
1529.97
1267.29
1018.33
780.526
551.371
328.368
109.048
308.412
927.154
1551.64
2185.63
2832.84
3496.83
4181.07
4888.78
5623.01
6386.52
7181.78
8010.89
8875.59
9777.17
10716.5
11693.8
12708.9
13761.1
14849
15970.6
17123.3
18304.1
19509
20733.7
21973.3
23222.2
24474.6
25723.9
26963.4
28185.9
29384.1
30550.3
31677
32756.5
33781.2
34743.8
35637.2
36454.5
37189.6
37836.6
38390.5
38846.7
39201.5
39452.1
39596.3
39632.8
39561.5
39382.7
39098
38709.7
38220.8
37635.4
36958
36194.1
35349.5
34430.7
33444.7
32398.7
31300.4
30157.3
28977.3
27768.3
26537.9
25293.7
24043.1
22793
21550.2
20320.7
19110.4
17924.5
16767.7
15644.3
14557.7
13511.1
12507
11547.2
10633.3
9766.1
8946.04
8173.12
7446.9
6766.59
6131.02
5538.73
4988.02
4476.93
4003.31
3564.86
3159.14
2783.64
2435.75
2112.83
1812.22
1531.22
1267.17
1017.41
779.293
550.209
327.558
108.758
309.607
930.793
1557.88
2194.74
2845.17
3512.85
4201.3
4913.84
5653.58
6423.33
7225.62
8062.58
8935.98
9847.14
10796.9
11785.6
12813
13878.3
14980.1
16116.5
17284.9
18481.9
19703.8
20946.2
22204
23471.6
24743
26011.7
27270.7
28512.8
29730.5
30916.1
32061.9
33160
34202.9
35182.9
36092.8
36925.8
37675.5
38335.9
38901.9
39368.8
39732.9
39991.2
40141.4
40182.4
40113.7
39935.9
39650.5
39259.6
38766.5
38175.2
37490.3
36717.2
35862.1
34931.4
33932.1
32871.7
31757.8
30598.2
29401
28174
26925
25661.9
24392
23122.4
21860
20611
19381.4
18176.4
17000.9
15859.1
14754.8
13691
12670.3
11694.8
10765.7
9884.22
9050.67
8265.09
7527.06
6835.79
6190.13
5588.62
5029.53
4510.91
4030.6
3586.26
3175.46
2795.62
2444.12
2118.28
1815.37
1532.68
1267.45
1016.98
778.547
549.45
327.011
108.561
309.839
931.529
1559.24
2196.92
2848.44
3517.55
4207.83
4922.66
5665.21
6438.33
7244.57
8086.13
8964.77
9881.84
10838.2
11834.2
12869.5
13943.5
15054.7
16201.1
17380.1
18588.5
19822.2
21077
22347.6
23628.5
24913.6
26196.3
27469.5
28726
29958.1
31158.2
32318.2
33430.5
34487.1
35480.5
36403.3
37248.5
38009.8
38681
39256.9
39732.7
40104.7
40369.8
40525.7
40571.1
40505.6
40329.7
40044.9
39653.3
39158.3
38563.7
37874.4
37095.7
36233.7
35295.1
34286.9
33216.7
32092.1
30921.1
29711.7
28471.9
27209.8
25933
24649.1
23365.5
22088.8
20825.6
19581.8
18362.7
17173.4
16018.1
14900.6
13824.1
12791.1
11803.7
10863.4
9971.16
9127.49
8332.41
7585.52
6886.03
6232.8
5624.37
5059.02
4534.77
4049.46
3600.76
3186.19
2803.17
2449.05
2121.11
1816.6
1532.76
1266.79
1015.93
777.411
548.465
326.35
108.329
308.926
928.816
1554.8
2190.89
2841.01
3508.93
4198.3
4912.54
5654.82
6428.06
7234.82
8077.32
8957.35
9876.26
10834.9
11833.7
12872.4
13950.1
15065.6
16216.8
17401
18615.1
19855
21116.4
22394
23682.4
24975.2
26265.9
27547.5
28812.6
30053.6
31262.6
32431.7
33553
34618.6
35620.9
36552.5
37406.3
38175.7
38854.7
39438
39920.8
40299.2
40570
40731
40780.8
40719
40546
40263.3
39873
39378.5
38783.6
38093.1
37312.5
36447.9
35505.8
34493.5
33418.5
32288.4
31111.4
29895.5
28648.7
27379.2
26094.7
24802.9
23511
22226
20954.3
19702
18474.5
17276.8
16113.2
14987.6
13903.1
12862.5
11867.7
10920.3
10021.4
9171.32
8370.26
7617.78
6913.11
6255.12
5642.35
5073.09
4545.37
4057.01
3605.68
3188.89
2804.06
2448.51
2119.52
1814.3
1530.07
1264
1013.29
775.124
546.708
325.246
107.952
306.709
922.179
1543.79
2175.56
2821.45
3485.27
4170.66
4881.07
5619.71
6389.49
7192.99
8032.44
8909.66
9825.99
10782.3
11779
12815.9
13892.1
15006.4
16156.6
17340.3
18554
19794
21055.7
22334
23623.4
24917.6
26210.1
27493.7
28761.2
30004.9
31216.9
32389.3
33514.2
34583.6
35589.9
36525.7
37383.9
38157.9
38841.6
39429.5
39917
40300
40575.4
40740.9
40795
40737.4
40568.3
40289.3
39902.5
39411.1
38819
38131
37352.4
36489.5
35548.8
34537.5
33463.1
32333.3
31156.2
29939.8
28692.3
27421.7
26135.9
24842.5
23548.8
22261.7
20987.9
19733.2
18503.3
17303
16136.9
15008.6
13921.6
12878.3
11881
10931.1
10029.8
9177.48
8374.26
7619.76
6913.24
6253.56
5639.3
5068.73
4539.91
4050.66
3598.65
3181.4
2796.32
2440.74
2111.91
1807.06
1523.38
1258.03
1008.19
771.021
543.702
323.412
107.336
303.054
911.214
1525.51
2149.98
2788.56
3445.06
4123.14
4826.24
5557.55
6320
7116.18
7948.3
8818.19
9727.21
10676.3
11665.7
12695.3
13764.4
14871.5
16014.8
17191.5
18398.5
19631.9
20887.3
22159.6
23443.2
24732
26019.3
27298.2
28561.4
29801.3
31009.9
32179.5
33302.1
34369.8
35375
36310.2
37168.3
37942.9
38627.7
39217.3
39707.1
40092.9
40371.6
40540.8
40599.2
40546.2
40382.1
40108.4
39727.3
39241.7
38655.7
37973.9
37201.7
36345.2
35411
34406.1
33338
32214.6
31043.6
29833.3
28591.7
27326.8
26046.5
24758.3
23469.6
22187.4
20918
19667.6
18441.7
17245.2
16082.6
14957.6
13873.6
12833.2
11838.5
10891.1
9991.98
9141.77
8340.51
7587.85
6883.05
6225.02
5612.32
5043.28
4515.93
4028.15
3577.59
3161.81
2778.23
2424.17
2096.91
1793.67
1511.64
1247.99
999.902
764.528
539.038
320.602
106.397
297.85
895.589
1499.42
2113.36
2741.32
3387.09
4054.28
4746.34
5466.43
6217.46
7001.99
7822.25
8680.05
9576.74
10513.2
11489.9
12506.6
13562.5
14656.3
15786.2
16949.5
18143
19363
20605
21864.1
23134.7
24410.8
25685.8
26952.9
28204.8
29433.9
30632.5
31792.8
32906.8
33966.9
34965.3
35894.8
36748.2
37519.1
38201.3
38789.5
39278.9
39665.5
39946.1
40118.3
40180.7
40132.8
39974.8
39708.2
39334.9
38858.1
38281.6
37610
36848.6
36003.4
35081
34088.2
33032.6
31921.8
30763.7
29566.3
28337.6
27085.5
25817.8
24542.1
23265.7
21995.3
20737.6
19498.4
18283.3
17097.3
15944.6
14829.2
13754.2
12722.3
11735.7
10796
9904.05
9060.59
8265.65
7518.91
6819.65
6166.78
5558.93
4994.41
4471.31
3987.52
3540.73
3128.5
2748.3
2397.47
2073.31
1773.06
1493.93
1233.12
987.804
755.16
532.368
316.609
105.068
291.01
875.041
1465.09
2065.11
2678.96
3310.38
3962.95
4640.06
5344.83
6080.14
6848.53
7652.2
8492.93
9372.09
10290.6
11248.7
12246.5
13283.1
14357.2
15467
16610
17783
18982.3
20203.7
21442.1
22692.3
23948.2
25203.4
26451.2
27684.4
28895.5
30077
31221.2
32320.2
33366.5
34352.4
35270.7
36114.5
36877.3
37553
38136.4
38622.7
39007.9
39288.9
39463.2
39529.4
39487
39336.2
39078.3
38715.3
38250.1
37686.7
37029.3
36283.3
35454.6
34549.5
33574.9
32538
31446.5
30308.1
29130.7
27922.1
26690.2
25442.7
24187
22930.3
21679.4
20440.6
19220
18022.8
16854.1
15718.1
14618.7
13559
12541.8
11569
10642.3
9762.75
8930.9
8146.86
7410.32
6720.58
6076.6
5477.02
4920.2
4404.27
3927.13
3486.54
3080.11
2705.3
2359.54
2040.13
1744.38
1469.52
1212.78
971.373
742.511
523.402
311.257
103.288
282.471
849.383
1422.19
2004.77
2600.89
3214.24
3848.32
4506.44
5191.67
5906.84
6654.45
7436.64
8255.19
9111.44
10006.3
10940.1
11912.8
12923.6
13971.4
15054.4
16169.9
17315.2
18486.5
19679.6
20889.8
22111.8
23339.8
24567.5
25788.3
26995.2
28180.9
29338.1
30459.1
31536.4
32562.4
33529.8
34431.4
35260.4
36010.5
36675.7
37250.8
37731.1
38112.7
38392.4
38567.9
38637.7
38601.1
38458.6
38211.1
37860.7
37410.2
36863.4
36224.5
35498.6
34691.5
33809.4
32859
31847.3
30781.9
29670.3
28520.2
27339.2
26135.2
24915.5
23687.6
22458.4
21234.6
20022.5
18827.8
17656
16511.8
15399.5
14322.8
13284.9
12288.4
11335.4
10427.4
9565.51
8750.3
7981.89
7259.98
6583.91
5952.67
5364.93
4819.11
4313.37
3845.68
3413.85
3015.52
2648.24
2309.46
1996.58
1706.92
1437.78
1186.45
950.186
726.253
511.907
304.407
101.013
272.195
818.501
1370.54
1932.08
2506.8
3098.26
3709.89
4344.9
5006.3
5696.83
6418.92
7174.69
7965.85
8793.74
9659.23
10562.7
11504.1
12482.8
13497.5
14546.6
15627.6
16737.7
17873.5
19030.7
20204.9
21390.8
22583
23775.2
24961.2
26134.1
27286.9
28412.3
29503
30551.7
31550.9
32493.6
33372.8
34181.8
34914.4
35564.9
36128.1
36599.4
36975
37251.8
37427.4
37500.4
37470.1
37336.8
37101.5
36766.1
36333.3
35806.7
35190.4
34489.4
33709.2
32855.9
31935.8
30956
29923.6
28846
27730.6
26584.9
25416.5
24232.5
23040.2
21846.4
20657.6
19479.9
18318.9
17179.8
16067.4
14985.9
13938.8
12929.3
11959.9
11032.7
10149.2
9310.45
8517.04
7769.1
7066.37
6408.21
5793.65
5221.42
4689.97
4197.55
3742.18
3321.73
2933.91
2576.35
2246.58
1942.03
1660.14
1398.25
1153.74
923.923
706.135
497.703
295.95
98.2048
260.169
782.355
1310.07
1846.95
2396.54
2962.29
3547.5
4155.27
4788.51
5449.86
6141.7
6866.05
7624.61
8418.65
9249.05
10116.2
11020.1
11960
12934.9
13943.1
14982.4
16050
17142.6
18256.2
19386.5
20528.5
21676.9
22825.8
23969.1
25100.1
26212.3
27298.4
28351.6
29364.7
30330.6
31242.3
32093.3
32876.9
33587.3
34218.8
34766.4
35225.6
35592.9
35865
36039.7
36115.5
36091.8
35968.7
35747.2
35429.1
35017
34514.2
33924.8
33253.4
32505.5
31686.6
30803.2
29861.8
28869.3
27832.9
26759.7
25656.9
24531.9
23391.6
22242.9
21092.5
19946.6
18811
17691.4
16592.7
15519.5
14475.9
13465.3
12490.9
11555
10659.7
9806.52
8996.44
8230.04
7507.48
6828.52
6192.56
5598.68
5045.67
4532.04
4056.1
3615.97
3209.57
2834.72
2489.13
2170.4
1876.08
1603.66
1350.62
1114.37
892.354
681.98
480.662
285.811
94.8391
246.404
740.978
1240.84
1749.46
2270.24
2806.47
3361.31
3937.73
4538.51
5166.2
5823.07
6511.07
7231.83
7986.6
8776.22
9601.1
10461.2
11355.9
12284.3
13244.8
14235.1
15252.9
16294.7
17357.1
18435.7
19525.9
20622.6
21720.3
22812.9
23894.4
24958.2
25997.7
27006.1
27976.6
28902.5
29777.1
30593.9
31346.9
32030.2
32638.4
33166.7
33610.9
33967.2
34232.8
34405.5
34483.7
34466.8
34354.9
34148.8
33850.3
33461.8
32986.5
32428
31791
31080.5
30301.8
29461.2
28564.7
27619.1
26631
25607.4
24555.3
23481.4
22392.7
21295.5
20196.3
19101.2
18015.7
16945.1
15894.3
14867.7
13869.1
12902
11969.3
11073.3
10216.1
9399.01
8623.09
7888.91
7196.64
6546.05
5936.6
5367.41
4837.33
4344.96
3888.69
3466.71
3077.07
2717.66
2386.29
2080.68
1798.48
1537.29
1294.67
1068.18
855.346
653.681
460.708
273.942
90.9003
230.935
694.478
1163.03
1639.87
2128.22
2631.2
3151.8
3692.85
4256.99
4846.62
5463.9
6110.72
6788.61
7498.77
8242.03
9018.8
9829.04
10672.3
11547.5
12453.4
13387.8
14348.4
15332.2
16335.7
17355.1
18385.7
19423
20461.5
21495.8
22520
23528
24513.4
25469.9
26391.1
27270.4
28101.7
28878.7
29595.6
30247
30827.6
31333
31758.9
32102
32359.3
32528.8
32608.9
32599
32499.1
32310
32033.3
31671.2
31226.7
30703.3
30105.2
29437.2
28704.4
27912.5
27067.4
26175.3
25242.7
24276.1
23282
22267
21237.4
20199.6
19159.5
18122.9
17095.1
16081.2
15085.8
14113
13166.5
12249.7
11365.2
10515.5
9702.32
8927.1
8190.8
7493.99
6836.84
6219.18
5640.48
5099.94
4596.49
4128.79
3695.34
3294.43
2924.21
2582.69
2267.8
1977.37
1709.18
1460.95
1230.38
1015.13
812.855
621.204
437.815
260.328
86.3827
213.823
643.033
1076.93
1518.59
1971.03
2437.17
2919.81
3421.6
3945.02
4492.35
5065.6
5666.55
6296.67
6957.08
7648.59
8371.6
9126.11
9911.69
10727.5
11572.1
12443.8
13340.3
14258.9
15196.2
16148.8
17112.4
18082.6
19054.6
20023
20982.5
21927.2
22851.5
23749.1
24614.1
25440.5
26222.4
26953.9
27629.7
28244.4
28793.4
29272.1
29676.8
30004.1
30251.3
30416.3
30497.8
30495
30408
30237.3
29984.5
29651.6
29241.2
28756.7
28201.9
27581.3
26899.8
26162.4
25374.9
24542.9
23672.6
22770
21841.2
20892.5
19929.7
18958.7
17985.3
17014.8
16052.2
15102.3
14169.4
13257.5
12370.1
11510.2
10680.4
9883.08
9119.85
8392.08
7700.72
7046.3
6429.02
5848.71
5304.93
4796.92
4323.68
3884
3476.46
3099.46
2751.27
2430.05
2133.84
1860.63
1608.31
1374.76
1157.81
955.264
764.926
584.579
412.004
244.982
81.2905
195.148
586.892
982.965
1386.21
1799.42
2225.3
2666.43
3125.28
3604.14
4105.12
4630.11
5180.75
5758.42
6364.19
6998.82
7662.69
8355.85
9077.93
9828.14
10605.3
11407.8
12233.5
13079.9
13944.2
14822.9
15712.2
16608.2
17506.2
18401.6
19289.1
20163.7
21019.8
21851.8
22654.3
23421.6
24148.3
24829
25458.5
26032.1
26545.2
26993.8
27374.2
27683.3
27918.6
28078
28160.3
28164.8
28091.2
27940.4
27713.3
27412
27038.9
26597
26089.7
25521.3
24896
24218.8
23494.7
22729.2
21927.7
21095.8
20239.3
19363.9
18475.1
17578.3
16678.8
15781.6
14891.4
14012.6
13149.2
12305
11483.1
10686.6
9917.69
9178.62
8470.99
7796.08
7154.76
6547.58
5974.71
5436.06
4931.19
4459.44
4019.9
3611.45
3232.79
2882.44
2558.83
2260.23
1984.85
1730.81
1496.17
1278.96
1077.16
888.757
711.689
543.905
383.344
227.942
75.6367
175.017
526.368
881.66
1243.48
1614.37
1996.8
2393.11
2805.57
3236.26
3687.12
4159.88
4656.05
5176.9
5723.44
6296.37
6896.08
7522.62
8175.71
8854.66
9558.41
10285.5
11034.2
11802.1
12586.6
13384.7
14193.1
15007.9
15825.2
16640.6
17449.5
18247.2
19028.6
19788.8
20522.7
21225
21891
22515.5
23094.1
23622.1
24095.5
24510.5
24863.8
25152.4
25374
25526.7
25609.3
25620.9
25561.5
25431.5