/*--------------------------------*- C++ -*----------------------------------*\
  =========                 |
  \\      /  F ield         | OpenFOAM: The Open Source CFD Toolbox
   \\    /   O peration     | Website:  https://openfoam.org
    \\  /    A nd           | Version:  9
     \\/     M anipulation  |
\*---------------------------------------------------------------------------*/
FoamFile
{
    format      ascii;
    class       volScalarField;
    location    "0.15";
    object      gradTz;
}
// * * * * * * * * * * * * * * * * * * * * * * * * * * * * * * * * * * * * * //

dimensions      [0 -1 0 1 0 0 0];

internalField   nonuniform List<scalar> 
200000
(
-6343.41
-6866.12
-7019.88
-7076.05
-7100.88
-7113.63
-7120.95
-7125.53
-7128.61
-7130.79
-7132.43
-7133.72
-7134.77
-7135.67
-7136.47
-7137.2
-7137.88
-7138.54
-7139.17
-7139.8
-7140.42
-7141.05
-7141.67
-7142.29
-7142.91
-7143.54
-7144.16
-7144.77
-7145.38
-7145.97
-7146.56
-7147.12
-7147.66
-7148.18
-7148.68
-7149.14
-7149.56
-7149.95
-7150.29
-7150.59
-7150.85
-7151.05
-7151.21
-7151.32
-7151.37
-7151.37
-7151.31
-7151.21
-7151.05
-7150.84
-7150.59
-7150.29
-7149.94
-7149.55
-7149.13
-7148.67
-7148.18
-7147.66
-7147.11
-7146.55
-7145.97
-7145.38
-7144.78
-7144.17
-7143.57
-7142.96
-7142.36
-7141.77
-7141.18
-7140.61
-7140.06
-7139.52
-7139
-7138.49
-7138.01
-7137.54
-7137.09
-7136.66
-7136.24
-7135.83
-7135.43
-7135.04
-7134.64
-7134.22
-7133.78
-7133.29
-7132.73
-7132.07
-7131.25
-7130.2
-7128.79
-7126.83
-7123.98
-7119.61
-7112.5
-7099.97
-7075.35
-7019.37
-6865.82
-6343.31
-6866.12
-7871.45
-8227.05
-8372.59
-8441.08
-8477.41
-8498.66
-8512.1
-8521.17
-8527.65
-8532.51
-8536.34
-8539.49
-8542.18
-8544.57
-8546.76
-8548.81
-8550.77
-8552.69
-8554.57
-8556.45
-8558.32
-8560.19
-8562.06
-8563.93
-8565.8
-8567.67
-8569.52
-8571.34
-8573.14
-8574.89
-8576.59
-8578.22
-8579.78
-8581.26
-8582.65
-8583.92
-8585.09
-8586.12
-8587.03
-8587.8
-8588.42
-8588.89
-8589.2
-8589.36
-8589.36
-8589.2
-8588.88
-8588.41
-8587.79
-8587.02
-8586.11
-8585.07
-8583.91
-8582.63
-8581.25
-8579.77
-8578.21
-8576.57
-8574.88
-8573.14
-8571.35
-8569.55
-8567.73
-8565.9
-8564.08
-8562.27
-8560.49
-8558.74
-8557.02
-8555.35
-8553.73
-8552.16
-8550.64
-8549.18
-8547.78
-8546.43
-8545.13
-8543.87
-8542.64
-8541.45
-8540.25
-8539.05
-8537.8
-8536.48
-8535.02
-8533.35
-8531.38
-8528.94
-8525.81
-8521.63
-8515.83
-8507.42
-8494.63
-8474.03
-8438.33
-8370.46
-8225.53
-7870.54
-6865.82
-7019.88
-8227.05
-8693.54
-8898.71
-9000.41
-9056.28
-9089.72
-9111.19
-9125.85
-9136.39
-9144.36
-9150.66
-9155.86
-9160.32
-9164.29
-9167.93
-9171.35
-9174.63
-9177.83
-9180.98
-9184.12
-9187.24
-9190.37
-9193.51
-9196.65
-9199.78
-9202.9
-9206
-9209.05
-9212.06
-9214.99
-9217.84
-9220.58
-9223.2
-9225.68
-9227.99
-9230.14
-9232.08
-9233.82
-9235.34
-9236.63
-9237.67
-9238.46
-9238.99
-9239.26
-9239.25
-9238.99
-9238.46
-9237.67
-9236.63
-9235.34
-9233.82
-9232.08
-9230.13
-9227.98
-9225.67
-9223.19
-9220.57
-9217.84
-9215
-9212.08
-9209.1
-9206.07
-9203.02
-9199.96
-9196.91
-9193.88
-9190.9
-9187.96
-9185.09
-9182.29
-9179.57
-9176.94
-9174.4
-9171.95
-9169.6
-9167.34
-9165.16
-9163.05
-9161.01
-9159.01
-9157.02
-9155.01
-9152.93
-9150.72
-9148.3
-9145.55
-9142.29
-9138.27
-9133.14
-9126.33
-9116.91
-9103.37
-9082.98
-9050.62
-8995.8
-8895.14
-8691
-8225.53
-7019.37
-7076.05
-8372.59
-8898.71
-9141.46
-9266.77
-9337.83
-9381.36
-9409.8
-9429.47
-9443.76
-9454.64
-9463.31
-9470.49
-9476.69
-9482.22
-9487.3
-9492.09
-9496.7
-9501.19
-9505.62
-9510.03
-9514.44
-9518.85
-9523.27
-9527.69
-9532.11
-9536.51
-9540.88
-9545.19
-9549.43
-9553.57
-9557.58
-9561.45
-9565.15
-9568.64
-9571.91
-9574.94
-9577.69
-9580.14
-9582.29
-9584.1
-9585.57
-9586.69
-9587.44
-9587.82
-9587.82
-9587.44
-9586.7
-9585.59
-9584.12
-9582.3
-9580.16
-9577.7
-9574.95
-9571.93
-9568.66
-9565.17
-9561.48
-9557.62
-9553.62
-9549.5
-9545.29
-9541.02
-9536.72
-9532.4
-9528.1
-9523.83
-9519.61
-9515.47
-9511.42
-9507.47
-9503.64
-9499.93
-9496.35
-9492.9
-9489.58
-9486.39
-9483.32
-9480.35
-9477.47
-9474.65
-9471.86
-9469.04
-9466.14
-9463.06
-9459.69
-9455.87
-9451.37
-9445.85
-9438.84
-9429.57
-9416.88
-9398.78
-9371.87
-9329.85
-9260.28
-9136.43
-8895.13
-8370.45
-7075.34
-7100.88
-8441.08
-9000.41
-9266.77
-9408.5
-9490.99
-9542.6
-9576.91
-9600.96
-9618.63
-9632.21
-9643.11
-9652.21
-9660.09
-9667.16
-9673.68
-9679.85
-9685.78
-9691.59
-9697.33
-9703.04
-9708.74
-9714.46
-9720.19
-9725.93
-9731.66
-9737.38
-9743.05
-9748.65
-9754.15
-9759.53
-9764.74
-9769.77
-9774.57
-9779.11
-9783.36
-9787.29
-9790.86
-9794.06
-9796.84
-9799.21
-9801.12
-9802.57
-9803.55
-9804.04
-9804.05
-9803.56
-9802.6
-9801.16
-9799.25
-9796.9
-9794.12
-9790.93
-9787.36
-9783.44
-9779.2
-9774.67
-9769.88
-9764.86
-9759.67
-9754.32
-9748.86
-9743.31
-9737.72
-9732.12
-9726.53
-9720.98
-9715.51
-9710.13
-9704.87
-9699.74
-9694.76
-9689.94
-9685.29
-9680.81
-9676.51
-9672.37
-9668.38
-9664.54
-9660.81
-9657.17
-9653.56
-9649.93
-9646.19
-9642.25
-9637.95
-9633.09
-9627.4
-9620.48
-9611.72
-9600.24
-9584.63
-9562.62
-9530.3
-9480.64
-9400.09
-9260.26
-8995.77
-8438.3
-7099.96
-7113.63
-8477.41
-9056.28
-9337.83
-9490.99
-9581.99
-9639.99
-9679.16
-9706.98
-9727.66
-9743.72
-9756.71
-9767.63
-9777.16
-9785.75
-9793.7
-9801.25
-9808.54
-9815.67
-9822.74
-9829.78
-9836.82
-9843.88
-9850.96
-9858.05
-9865.14
-9872.21
-9879.22
-9886.15
-9892.96
-9899.61
-9906.07
-9912.29
-9918.23
-9923.85
-9929.11
-9933.98
-9938.4
-9942.36
-9945.82
-9948.74
-9951.12
-9952.92
-9954.13
-9954.75
-9954.76
-9954.17
-9952.98
-9951.2
-9948.85
-9945.94
-9942.51
-9938.57
-9934.15
-9929.3
-9924.06
-9918.45
-9912.53
-9906.33
-9899.9
-9893.28
-9886.52
-9879.66
-9872.74
-9865.81
-9858.89
-9852.03
-9845.26
-9838.6
-9832.09
-9825.74
-9819.58
-9813.62
-9807.87
-9802.33
-9797.01
-9791.89
-9786.97
-9782.22
-9777.63
-9773.14
-9768.7
-9764.25
-9759.68
-9754.88
-9749.67
-9743.82
-9737
-9728.76
-9718.41
-9704.95
-9686.82
-9661.51
-9624.8
-9569.22
-9480.59
-9329.78
-9050.55
-8473.98
-7112.48
-7120.95
-8498.66
-9089.72
-9381.36
-9542.6
-9639.99
-9703.03
-9746.2
-9777.26
-9800.61
-9818.92
-9833.87
-9846.54
-9857.67
-9867.75
-9877.14
-9886.07
-9894.73
-9903.23
-9911.66
-9920.06
-9928.48
-9936.92
-9945.4
-9953.89
-9962.38
-9970.85
-9979.25
-9987.56
-9995.73
-10003.7
-10011.4
-10018.9
-10026
-10032.8
-10039.1
-10044.9
-10050.2
-10055
-10059.1
-10062.7
-10065.5
-10067.7
-10069.1
-10069.9
-10069.9
-10069.2
-10067.8
-10065.7
-10062.9
-10059.4
-10055.3
-10050.5
-10045.3
-10039.4
-10033.2
-10026.4
-10019.3
-10011.9
-10004.2
-9996.27
-9988.17
-9979.94
-9971.65
-9963.33
-9955.04
-9946.81
-9938.69
-9930.71
-9922.9
-9915.29
-9907.91
-9900.76
-9893.86
-9887.22
-9880.85
-9874.72
-9868.83
-9863.15
-9857.66
-9852.31
-9847.03
-9841.75
-9836.35
-9830.69
-9824.59
-9817.78
-9809.9
-9800.43
-9788.64
-9773.44
-9753.14
-9725.09
-9684.86
-9624.71
-9530.17
-9371.73
-9082.86
-8494.56
-7119.58
-7125.53
-8512.1
-9111.19
-9409.8
-9576.91
-9679.16
-9746.2
-9792.69
-9826.53
-9852.25
-9872.62
-9889.41
-9903.75
-9916.44
-9928.01
-9938.83
-9949.17
-9959.22
-9969.12
-9978.94
-9988.76
-9998.6
-10008.5
-10018.4
-10028.3
-10038.3
-10048.2
-10058.1
-10067.8
-10077.4
-10086.7
-10095.8
-10104.6
-10113
-10120.9
-10128.3
-10135.1
-10141.4
-10147
-10151.8
-10156
-10159.3
-10161.9
-10163.6
-10164.5
-10164.5
-10163.7
-10162.1
-10159.6
-10156.3
-10152.2
-10147.4
-10141.9
-10135.7
-10128.9
-10121.5
-10113.6
-10105.3
-10096.6
-10087.5
-10078.2
-10068.7
-10059.1
-10049.4
-10039.6
-10029.9
-10020.2
-10010.7
-10001.3
-9992.18
-9983.26
-9974.59
-9966.21
-9958.13
-9950.34
-9942.87
-9935.69
-9928.8
-9922.16
-9915.74
-9909.5
-9903.36
-9897.23
-9890.99
-9884.49
-9877.51
-9869.77
-9860.88
-9850.29
-9837.2
-9820.46
-9798.32
-9767.99
-9724.95
-9661.29
-9562.37
-9398.54
-9103.18
-8507.3
-7123.94
-7128.61
-8521.17
-9125.85
-9429.47
-9600.96
-9706.98
-9777.26
-9826.53
-9862.77
-9890.61
-9912.88
-9931.4
-9947.36
-9961.57
-9974.62
-9986.88
-9998.65
-10010.1
-10021.5
-10032.7
-10044
-10055.3
-10066.7
-10078.1
-10089.6
-10101.1
-10112.5
-10123.9
-10135.1
-10146.2
-10157
-10167.4
-10177.5
-10187.2
-10196.4
-10204.9
-10212.8
-10220
-10226.5
-10232.1
-10236.9
-10240.8
-10243.8
-10245.8
-10246.8
-10246.9
-10245.9
-10244
-10241.2
-10237.4
-10232.7
-10227.2
-10220.8
-10213.6
-10205.8
-10197.3
-10188.2
-10178.6
-10168.6
-10158.1
-10147.4
-10136.4
-10125.3
-10114.1
-10102.8
-10091.6
-10080.5
-10069.5
-10058.7
-10048.1
-10037.8
-10027.8
-10018.1
-10008.8
-9999.8
-9991.18
-9982.91
-9974.97
-9967.33
-9959.96
-9952.8
-9945.77
-9938.78
-9931.69
-9924.34
-9916.5
-9907.87
-9898.02
-9886.38
-9872.12
-9854.03
-9830.31
-9798.1
-9752.8
-9686.41
-9584.22
-9416.51
-9116.63
-8515.65
-7126.77
-7130.79
-8527.65
-9136.39
-9443.76
-9618.63
-9727.66
-9800.61
-9852.25
-9890.61
-9920.37
-9944.4
-9964.57
-9982.09
-9997.82
-10012.3
-10026.1
-10039.3
-10052.2
-10065
-10077.8
-10090.6
-10103.4
-10116.4
-10129.4
-10142.4
-10155.5
-10168.5
-10181.5
-10194.3
-10206.9
-10219.2
-10231.1
-10242.7
-10253.7
-10264.1
-10273.9
-10282.9
-10291.2
-10298.5
-10305
-10310.4
-10314.9
-10318.3
-10320.6
-10321.8
-10321.9
-10320.8
-10318.7
-10315.4
-10311.1
-10305.8
-10299.5
-10292.2
-10284.1
-10275.2
-10265.5
-10255.1
-10244.2
-10232.7
-10220.9
-10208.6
-10196.1
-10183.4
-10170.6
-10157.8
-10145
-10132.3
-10119.8
-10107.5
-10095.4
-10083.7
-10072.3
-10061.2
-10050.6
-10040.4
-10030.6
-10021.1
-10012.1
-10003.4
-9995.06
-9986.95
-9979.01
-9971.13
-9963.18
-9954.99
-9946.29
-9936.79
-9926.03
-9913.41
-9898.09
-9878.81
-9853.72
-9819.95
-9772.81
-9704.3
-9599.62
-9429.04
-9125.91
-8521.37
-7128.71
-7132.43
-8532.51
-9144.36
-9454.64
-9632.21
-9743.72
-9818.92
-9872.62
-9912.88
-9944.4
-9970.1
-9991.85
-10010.9
-10028.1
-10044.1
-10059.3
-10074.1
-10088.5
-10102.8
-10117.1
-10131.5
-10146
-10160.5
-10175.2
-10189.9
-10204.6
-10219.3
-10233.9
-10248.4
-10262.6
-10276.5
-10290
-10303
-10315.5
-10327.3
-10338.3
-10348.5
-10357.8
-10366.2
-10373.5
-10379.6
-10384.7
-10388.5
-10391.1
-10392.5
-10392.6
-10391.5
-10389.1
-10385.4
-10380.6
-10374.6
-10367.5
-10359.3
-10350.1
-10340.1
-10329.1
-10317.5
-10305.1
-10292.2
-10278.8
-10265
-10250.9
-10236.6
-10222.1
-10207.6
-10193.2
-10178.8
-10164.7
-10150.8
-10137.2
-10123.9
-10111
-10098.6
-10086.6
-10075.1
-10064
-10053.4
-10043.2
-10033.4
-10024
-10014.9
-10006
-9997.24
-9988.42
-9979.36
-9969.82
-9959.46
-9947.83
-9934.3
-9917.99
-9897.65
-9871.38
-9836.29
-9787.65
-9717.43
-9610.83
-9438.08
-9132.57
-8525.45
-7130.08
-7133.72
-8536.34
-9150.66
-9463.31
-9643.11
-9756.71
-9833.87
-9889.41
-9931.4
-9964.57
-9991.85
-10015.1
-10035.7
-10054.4
-10071.9
-10088.6
-10104.9
-10120.9
-10136.8
-10152.7
-10168.7
-10184.9
-10201.1
-10217.5
-10233.9
-10250.4
-10266.9
-10283.2
-10299.4
-10315.3
-10330.9
-10346
-10360.6
-10374.6
-10387.8
-10400.2
-10411.6
-10422.1
-10431.4
-10439.6
-10446.6
-10452.2
-10456.6
-10459.5
-10461.1
-10461.2
-10459.9
-10457.3
-10453.2
-10447.8
-10441.1
-10433.2
-10424
-10413.8
-10402.5
-10390.3
-10377.2
-10363.4
-10349
-10334
-10318.5
-10302.7
-10286.7
-10270.5
-10254.3
-10238.1
-10222
-10206.2
-10190.6
-10175.3
-10160.5
-10146.1
-10132.1
-10118.7
-10105.8
-10093.4
-10081.5
-10070.1
-10059.2
-10048.7
-10038.6
-10028.8
-10019
-10009.3
-9999.39
-9989
-9977.79
-9965.31
-9950.91
-9933.7
-9912.4
-9885.09
-9848.86
-9798.98
-9727.38
-9619.24
-9444.83
-9137.51
-8528.47
-7131.09
-7134.77
-8539.49
-9155.86
-9470.49
-9652.21
-9767.63
-9846.54
-9903.75
-9947.36
-9982.09
-10010.9
-10035.7
-10057.8
-10078
-10097
-10115.3
-10133.1
-10150.7
-10168.3
-10185.9
-10203.6
-10221.5
-10239.5
-10257.7
-10275.9
-10294.2
-10312.5
-10330.7
-10348.7
-10366.4
-10383.8
-10400.6
-10416.9
-10432.4
-10447.1
-10460.9
-10473.7
-10485.3
-10495.8
-10504.9
-10512.7
-10519
-10523.8
-10527.1
-10528.9
-10529.1
-10527.7
-10524.7
-10520.3
-10514.3
-10506.8
-10498
-10487.9
-10476.5
-10464
-10450.4
-10435.9
-10420.5
-10404.4
-10387.7
-10370.6
-10353
-10335.1
-10317.1
-10299.1
-10281.1
-10263.2
-10245.6
-10228.2
-10211.3
-10194.8
-10178.7
-10163.2
-10148.3
-10133.9
-10120.1
-10106.9
-10094.3
-10082.2
-10070.6
-10059.4
-10048.5
-10037.8
-10027.2
-10016.4
-10005.1
-9993.06
-9979.75
-9964.52
-9946.46
-9924.27
-9896.04
-9858.82
-9807.88
-9735.13
-9625.76
-9450.02
-9141.29
-8530.76
-7131.87
-7135.67
-8542.18
-9160.32
-9476.69
-9660.09
-9777.16
-9857.67
-9916.44
-9961.57
-9997.82
-10028.1
-10054.4
-10078
-10099.8
-10120.3
-10140.2
-10159.6
-10178.9
-10198.2
-10217.5
-10237
-10256.7
-10276.6
-10296.7
-10316.8
-10337.1
-10357.3
-10377.4
-10397.3
-10416.9
-10436.1
-10454.7
-10472.7
-10489.9
-10506.2
-10521.5
-10535.7
-10548.6
-10560.1
-10570.3
-10578.9
-10585.9
-10591.3
-10595
-10597
-10597.2
-10595.7
-10592.5
-10587.5
-10580.9
-10572.7
-10563
-10551.8
-10539.2
-10525.4
-10510.4
-10494.3
-10477.4
-10459.6
-10441.1
-10422.1
-10402.7
-10383
-10363.1
-10343.1
-10323.2
-10303.4
-10283.9
-10264.7
-10245.9
-10227.6
-10209.9
-10192.7
-10176.2
-10160.3
-10145.1
-10130.5
-10116.6
-10103.2
-10090.4
-10078.1
-10066.2
-10054.5
-10042.9
-10031.2
-10019
-10006.2
-9992.03
-9975.99
-9957.12
-9934.11
-9905.04
-9866.94
-9815.07
-9741.35
-9630.96
-9454.13
-9144.27
-8532.57
-7132.47
-7136.47
-8544.57
-9164.29
-9482.22
-9667.16
-9785.75
-9867.75
-9928.01
-9974.62
-10012.3
-10044.1
-10071.9
-10097
-10120.3
-10142.5
-10164
-10185.1
-10206.1
-10227.2
-10248.3
-10269.7
-10291.3
-10313.1
-10335.2
-10357.3
-10379.6
-10401.8
-10424
-10445.9
-10467.4
-10488.6
-10509.1
-10528.9
-10547.8
-10565.8
-10582.7
-10598.3
-10612.5
-10625.3
-10636.4
-10646
-10653.7
-10659.7
-10663.8
-10666
-10666.3
-10664.7
-10661.2
-10655.8
-10648.5
-10639.5
-10628.8
-10616.5
-10602.7
-10587.5
-10571
-10553.4
-10534.7
-10515.1
-10494.8
-10473.9
-10452.5
-10430.8
-10408.9
-10386.9
-10365
-10343.2
-10321.7
-10300.6
-10279.9
-10259.8
-10240.3
-10221.4
-10203.2
-10185.7
-10169
-10152.9
-10137.6
-10122.9
-10108.9
-10095.4
-10082.4
-10069.7
-10057.1
-10044.5
-10031.5
-10017.7
-10002.8
-9985.94
-9966.28
-9942.5
-9912.64
-9873.74
-9821.06
-9746.49
-9635.22
-9457.49
-9146.69
-8534.04
-7132.96
-7137.2
-8546.76
-9167.93
-9487.3
-9673.68
-9793.7
-9877.14
-9938.83
-9986.88
-10026.1
-10059.3
-10088.6
-10115.3
-10140.2
-10164
-10187.2
-10210
-10232.8
-10255.7
-10278.8
-10302.1
-10325.7
-10349.5
-10373.6
-10397.9
-10422.2
-10446.6
-10470.8
-10494.8
-10518.5
-10541.6
-10564.1
-10585.9
-10606.7
-10626.4
-10644.8
-10662
-10677.6
-10691.6
-10703.9
-10714.4
-10722.9
-10729.5
-10734
-10736.5
-10736.9
-10735.1
-10731.3
-10725.4
-10717.5
-10707.7
-10696
-10682.6
-10667.5
-10650.8
-10632.8
-10613.5
-10593
-10571.6
-10549.3
-10526.4
-10503
-10479.2
-10455.2
-10431.1
-10407
-10383.2
-10359.6
-10336.5
-10313.8
-10291.8
-10270.4
-10249.7
-10229.7
-10210.6
-10192.2
-10174.7
-10157.9
-10141.9
-10126.6
-10111.9
-10097.7
-10083.9
-10070.3
-10056.7
-10042.8
-10028.2
-10012.4
-9994.8
-9974.38
-9949.85
-9919.25
-9879.62
-9826.19
-9750.87
-9638.83
-9460.32
-9148.73
-8535.26
-7133.37
-7137.88
-8548.81
-9171.35
-9492.09
-9679.85
-9801.25
-9886.07
-9949.17
-9998.65
-10039.3
-10074.1
-10104.9
-10133.1
-10159.6
-10185.1
-10210
-10234.7
-10259.3
-10284.1
-10309.1
-10334.5
-10360.1
-10386.1
-10412.4
-10438.8
-10465.4
-10491.9
-10518.4
-10544.6
-10570.4
-10595.7
-10620.2
-10644
-10666.7
-10688.2
-10708.4
-10727.1
-10744.2
-10759.6
-10773
-10784.5
-10793.9
-10801.1
-10806.1
-10808.8
-10809.3
-10807.4
-10803.3
-10796.9
-10788.3
-10777.7
-10764.9
-10750.3
-10733.8
-10715.7
-10696
-10674.9
-10652.6
-10629.3
-10605
-10580
-10554.4
-10528.5
-10502.2
-10475.9
-10449.7
-10423.7
-10397.9
-10372.7
-10347.9
-10323.9
-10300.5
-10277.9
-10256.1
-10235.2
-10215.2
-10196
-10177.8
-10160.3
-10143.7
-10127.7
-10112.3
-10097.4
-10082.8
-10068.2
-10053.4
-10037.9
-10021.3
-10002.9
-9981.73
-9956.47
-9925.16
-9884.83
-9830.71
-9754.71
-9641.98
-9462.78
-9150.48
-8536.32
-7133.72
-7138.54
-8550.77
-9174.63
-9496.7
-9685.78
-9808.54
-9894.73
-9959.22
-10010.1
-10052.2
-10088.5
-10120.9
-10150.7
-10178.9
-10206.1
-10232.8
-10259.3
-10285.9
-10312.6
-10339.7
-10367.2
-10395
-10423.2
-10451.6
-10480.4
-10509.2
-10538.1
-10566.8
-10595.3
-10623.4
-10650.9
-10677.6
-10703.4
-10728.2
-10751.6
-10773.6
-10794
-10812.6
-10829.4
-10844
-10856.5
-10866.8
-10874.7
-10880.2
-10883.2
-10883.7
-10881.7
-10877.3
-10870.4
-10861.1
-10849.6
-10835.8
-10819.9
-10802
-10782.3
-10760.9
-10738
-10713.8
-10688.4
-10662
-10634.9
-10607.1
-10578.8
-10550.3
-10521.7
-10493.2
-10464.9
-10436.9
-10409.4
-10382.5
-10356.3
-10330.9
-10306.3
-10282.6
-10259.9
-10238.2
-10217.4
-10197.5
-10178.6
-10160.5
-10143.2
-10126.6
-10110.6
-10094.8
-10079.2
-10063.5
-10047.1
-10029.7
-10010.5
-9988.55
-9962.57
-9930.57
-9889.57
-9834.8
-9758.15
-9644.8
-9464.96
-9152.05
-8537.25
-7134.03
-7139.17
-8552.69
-9177.83
-9501.19
-9691.59
-9815.67
-9903.23
-9969.12
-10021.5
-10065
-10102.8
-10136.8
-10168.3
-10198.2
-10227.2
-10255.7
-10284.1
-10312.6
-10341.5
-10370.7
-10400.3
-10430.3
-10460.8
-10491.6
-10522.7
-10553.9
-10585.2
-10616.3
-10647.2
-10677.6
-10707.4
-10736.4
-10764.4
-10791.2
-10816.6
-10840.5
-10862.7
-10882.9
-10901
-10917
-10930.6
-10941.8
-10950.4
-10956.4
-10959.7
-10960.3
-10958.2
-10953.5
-10946.1
-10936.1
-10923.6
-10908.7
-10891.5
-10872.1
-10850.8
-10827.7
-10802.9
-10776.7
-10749.2
-10720.6
-10691.2
-10661.1
-10630.5
-10599.6
-10568.6
-10537.7
-10507
-10476.7
-10446.9
-10417.7
-10389.3
-10361.8
-10335.1
-10309.5
-10284.8
-10261.3
-10238.8
-10217.3
-10196.8
-10177.3
-10158.6
-10140.8
-10123.5
-10106.6
-10090
-10073.2
-10056
-10037.7
-10017.7
-9995
-9968.31
-9935.63
-9893.98
-9838.59
-9761.33
-9647.38
-9466.96
-9153.47
-8538.11
-7134.32
-7139.8
-8554.57
-9180.98
-9505.62
-9697.33
-9822.74
-9911.66
-9978.94
-10032.7
-10077.8
-10117.1
-10152.7
-10185.9
-10217.5
-10248.3
-10278.8
-10309.1
-10339.7
-10370.7
-10402
-10433.9
-10466.3
-10499.1
-10532.3
-10565.8
-10599.5
-10633.3
-10666.9
-10700.2
-10733.1
-10765.3
-10796.6
-10826.9
-10855.9
-10883.4
-10909.2
-10933.1
-10955
-10974.7
-10992
-11006.7
-11018.8
-11028.2
-11034.7
-11038.4
-11039.1
-11036.9
-11031.8
-11023.9
-11013.1
-10999.7
-10983.6
-10965.1
-10944.3
-10921.3
-10896.4
-10869.6
-10841.3
-10811.6
-10780.8
-10749
-10716.5
-10683.5
-10650.1
-10616.6
-10583.2
-10550.1
-10517.3
-10485.1
-10453.7
-10423
-10393.2
-10364.4
-10336.7
-10310.1
-10284.7
-10260.4
-10237.2
-10215.1
-10194.1
-10174
-10154.8
-10136.3
-10118.3
-10100.6
-10082.8
-10064.6
-10045.5
-10024.7
-10001.2
-9973.81
-9940.46
-9898.17
-9842.16
-9764.32
-9649.8
-9468.83
-9154.8
-8538.9
-7134.58
-7140.42
-8556.45
-9184.12
-9510.03
-9703.04
-9829.78
-9920.06
-9988.76
-10044
-10090.6
-10131.5
-10168.7
-10203.6
-10237
-10269.7
-10302.1
-10334.5
-10367.2
-10400.3
-10433.9
-10468.1
-10502.9
-10538.1
-10573.8
-10609.9
-10646.1
-10682.4
-10718.6
-10754.5
-10789.8
-10824.5
-10858.3
-10890.9
-10922.1
-10951.8
-10979.6
-11005.4
-11029.1
-11050.3
-11068.9
-11084.9
-11098
-11108.1
-11115.2
-11119.2
-11120
-11117.8
-11112.3
-11103.8
-11092.3
-11077.9
-11060.7
-11040.8
-11018.4
-10993.7
-10966.9
-10938.1
-10907.7
-10875.7
-10842.6
-10808.4
-10773.4
-10737.8
-10701.9
-10665.9
-10629.9
-10594.2
-10558.9
-10524.3
-10490.4
-10457.3
-10425.3
-10394.3
-10364.4
-10335.8
-10308.4
-10282.3
-10257.3
-10233.6
-10211
-10189.5
-10168.9
-10149.1
-10130
-10111.1
-10092.3
-10073.2
-10053.1
-10031.5
-10007.3
-9979.16
-9945.13
-9902.21
-9845.6
-9767.19
-9652.11
-9470.61
-9156.06
-8539.65
-7134.83
-7141.05
-8558.32
-9187.24
-9514.44
-9708.74
-9836.82
-9928.48
-9998.6
-10055.3
-10103.4
-10146
-10184.9
-10221.5
-10256.7
-10291.3
-10325.7
-10360.1
-10395
-10430.3
-10466.3
-10502.9
-10540
-10577.8
-10616.1
-10654.7
-10693.6
-10732.5
-10771.3
-10809.8
-10847.8
-10885
-10921.3
-10956.3
-10989.9
-11021.7
-11051.6
-11079.4
-11104.8
-11127.7
-11147.7
-11164.9
-11179
-11190
-11197.7
-11202
-11203
-11200.6
-11194.9
-11185.8
-11173.5
-11158.1
-11139.6
-11118.3
-11094.4
-11067.9
-11039.1
-11008.3
-10975.7
-10941.4
-10905.8
-10869.1
-10831.6
-10793.4
-10754.9
-10716.2
-10677.6
-10639.3
-10601.5
-10564.3
-10527.9
-10492.4
-10458
-10424.7
-10392.7
-10361.9
-10332.5
-10304.5
-10277.8
-10252.3
-10228.1
-10205.1
-10183.1
-10162
-10141.6
-10121.7
-10101.8
-10081.7
-10060.7
-10038.3
-10013.3
-9984.41
-9949.71
-9906.15
-9848.94
-9769.96
-9654.35
-9472.33
-9157.28
-8540.38
-7135.07
-7141.67
-8560.19
-9190.37
-9518.85
-9714.46
-9843.88
-9936.92
-10008.5
-10066.7
-10116.4
-10160.5
-10201.1
-10239.5
-10276.6
-10313.1
-10349.5
-10386.1
-10423.2
-10460.8
-10499.1
-10538.1
-10577.8
-10618.2
-10659
-10700.3
-10741.9
-10783.5
-10825
-10866.2
-10906.9
-10946.7
-10985.5
-11023
-11059
-11093.1
-11125.2
-11154.9
-11182.2
-11206.7
-11228.2
-11246.7
-11261.8
-11273.6
-11281.9
-11286.6
-11287.8
-11285.3
-11279.2
-11269.6
-11256.5
-11240
-11220.4
-11197.6
-11172
-11143.8
-11113
-11080.1
-11045.2
-11008.6
-10970.5
-10931.3
-10891.1
-10850.3
-10809.1
-10767.7
-10726.4
-10685.4
-10644.9
-10605.1
-10566.1
-10528.1
-10491.3
-10455.7
-10421.4
-10388.5
-10357.1
-10327
-10298.5
-10271.3
-10245.5
-10220.9
-10197.5
-10175
-10153.4
-10132.2
-10111.3
-10090.2
-10068.3
-10045
-10019.2
-9989.6
-9954.22
-9910.03
-9852.23
-9772.69
-9656.54
-9474.01
-9158.46
-8541.09
-7135.31
-7142.29
-8562.06
-9193.51
-9523.27
-9720.19
-9850.96
-9945.4
-10018.4
-10078.1
-10129.4
-10175.2
-10217.5
-10257.7
-10296.7
-10335.2
-10373.6
-10412.4
-10451.6
-10491.6
-10532.3
-10573.8
-10616.1
-10659
-10702.6
-10746.6
-10790.9
-10835.3
-10879.5
-10923.5
-10966.9
-11009.4
-11050.8
-11090.8
-11129.2
-11165.7
-11199.9
-11231.8
-11260.9
-11287.1
-11310.1
-11329.9
-11346.2
-11358.8
-11367.7
-11372.8
-11374.1
-11371.5
-11365.1
-11354.9
-11341
-11323.6
-11302.6
-11278.5
-11251.2
-11221.1
-11188.4
-11153.3
-11116.1
-11077
-11036.4
-10994.6
-10951.8
-10908.2
-10864.3
-10820.1
-10776
-10732.3
-10689.1
-10646.6
-10605
-10564.5
-10525.1
-10487.2
-10450.6
-10415.5
-10381.9
-10349.9
-10319.4
-10290.5
-10263
-10236.8
-10211.9
-10188.1
-10165.2
-10142.8
-10120.8
-10098.7
-10075.9
-10051.7
-10025.1
-9994.77
-9958.7
-9913.87
-9855.47
-9775.37
-9658.7
-9475.67
-9159.63
-8541.78
-7135.54
-7142.91
-8563.93
-9196.65
-9527.69
-9725.93
-9858.05
-9953.89
-10028.3
-10089.6
-10142.4
-10189.9
-10233.9
-10275.9
-10316.8
-10357.3
-10397.9
-10438.8
-10480.4
-10522.7
-10565.8
-10609.9
-10654.7
-10700.3
-10746.6
-10793.3
-10840.4
-10887.6
-10934.7
-10981.5
-11027.6
-11072.8
-11116.9
-11159.5
-11200.4
-11239.2
-11275.7
-11309.6
-11340.7
-11368.6
-11393.2
-11414.3
-11431.7
-11445.2
-11454.8
-11460.3
-11461.8
-11459.1
-11452.4
-11441.6
-11426.9
-11408.4
-11386.2
-11360.5
-11331.6
-11299.6
-11264.8
-11227.5
-11188
-11146.5
-11103.4
-11058.9
-11013.3
-10967
-10920.3
-10873.3
-10826.4
-10779.9
-10733.9
-10688.7
-10644.4
-10601.3
-10559.5
-10519.1
-10480.1
-10442.8
-10407.1
-10373
-10340.6
-10309.9
-10280.6
-10252.9
-10226.5
-10201.3
-10177
-10153.5
-10130.4
-10107.2
-10083.5
-10058.4
-10031
-9999.92
-9963.16
-9917.69
-9858.7
-9778.04
-9660.84
-9477.3
-9160.79
-8542.47
-7135.77
-7143.54
-8565.8
-9199.78
-9532.11
-9731.66
-9865.14
-9962.38
-10038.3
-10101.1
-10155.5
-10204.6
-10250.4
-10294.2
-10337.1
-10379.6
-10422.2
-10465.4
-10509.2
-10553.9
-10599.5
-10646.1
-10693.6
-10741.9
-10790.9
-10840.4
-10890.3
-10940.3
-10990.3
-11039.9
-11088.8
-11136.8
-11183.6
-11228.8
-11272.2
-11313.5
-11352.2
-11388.2
-11421.2
-11450.9
-11477.1
-11499.6
-11518.1
-11532.5
-11542.8
-11548.7
-11550.3
-11547.6
-11540.5
-11529.2
-11513.7
-11494.1
-11470.7
-11443.5
-11412.9
-11379
-11342.2
-11302.7
-11260.8
-11216.8
-11171.1
-11123.9
-11075.6
-11026.5
-10976.9
-10927.1
-10877.4
-10828
-10779.2
-10731.3
-10684.3
-10638.6
-10594.2
-10551.3
-10510
-10470.4
-10432.5
-10396.4
-10362
-10329.4
-10298.5
-10269.1
-10241.2
-10214.5
-10189
-10164.2
-10140
-10115.8
-10091
-10065.1
-10036.9
-10005.1
-9967.61
-9921.5
-9861.9
-9780.69
-9662.96
-9478.93
-9161.93
-8543.15
-7135.99
-7144.16
-8567.67
-9202.9
-9536.51
-9737.38
-9872.21
-9970.85
-10048.2
-10112.5
-10168.5
-10219.3
-10266.9
-10312.5
-10357.3
-10401.8
-10446.6
-10491.9
-10538.1
-10585.2
-10633.3
-10682.4
-10732.5
-10783.5
-10835.3
-10887.6
-10940.3
-10993.2
-11046.1
-11098.5
-11150.3
-11201.1
-11250.6
-11298.4
-11344.4
-11388
-11429.1
-11467.2
-11502.2
-11533.7
-11561.5
-11585.3
-11605
-11620.3
-11631.2
-11637.6
-11639.4
-11636.6
-11629.3
-11617.4
-11601
-11580.4
-11555.7
-11527
-11494.7
-11459
-11420.1
-11378.3
-11334.1
-11287.6
-11239.3
-11189.4
-11138.3
-11086.4
-11034
-10981.3
-10928.7
-10876.5
-10824.9
-10774.1
-10724.5
-10676.1
-10629.1
-10583.7
-10540
-10498.1
-10458.1
-10419.9
-10383.5
-10349.1
-10316.4
-10285.3
-10255.9
-10227.8
-10200.9
-10175
-10149.6
-10124.3
-10098.6
-10071.8
-10042.8
-10010.2
-9972.04
-9925.28
-9865.09
-9783.32
-9665.07
-9480.54
-9163.07
-8543.83
-7136.22
-7144.77
-8569.52
-9206
-9540.88
-9743.05
-9879.22
-9979.25
-10058.1
-10123.9
-10181.5
-10233.9
-10283.2
-10330.7
-10377.4
-10424
-10470.8
-10518.4
-10566.8
-10616.3
-10666.9
-10718.6
-10771.3
-10825
-10879.5
-10934.7
-10990.3
-11046.1
-11101.7
-11157
-11211.6
-11265.2
-11317.5
-11368
-11416.5
-11462.6
-11505.9
-11546.2
-11583.2
-11616.5
-11645.8
-11671
-11691.9
-11708.2
-11719.8
-11726.6
-11728.6
-11725.8
-11718.1
-11705.6
-11688.5
-11666.9
-11640.9
-11610.7
-11576.7
-11539.1
-11498.1
-11454.1
-11407.5
-11358.5
-11307.6
-11255
-11201.2
-11146.5
-11091.2
-11035.6
-10980.2
-10925.1
-10870.6
-10817.1
-10764.7
-10713.6
-10664.1
-10616.2
-10570.1
-10525.9
-10483.7
-10443.4
-10405.1
-10368.7
-10334.3
-10301.6
-10270.6
-10241.1
-10212.9
-10185.7
-10159.2
-10132.9
-10106.2
-10078.5
-10048.6
-10015.3
-9976.44
-9929.05
-9868.26
-9785.93
-9667.16
-9482.13
-9164.19
-8544.5
-7136.44
-7145.38
-8571.34
-9209.05
-9545.19
-9748.65
-9886.15
-9987.56
-10067.8
-10135.1
-10194.3
-10248.4
-10299.4
-10348.7
-10397.3
-10445.9
-10494.8
-10544.6
-10595.3
-10647.2
-10700.2
-10754.5
-10809.8
-10866.2
-10923.5
-10981.5
-11039.9
-11098.5
-11157
-11215.2
-11272.6
-11329
-11383.9
-11437.1
-11488.2
-11536.7
-11582.3
-11624.8
-11663.7
-11698.8
-11729.8
-11756.4
-11778.4
-11795.7
-11808
-11815.3
-11817.5
-11814.6
-11806.6
-11793.6
-11775.7
-11753
-11725.7
-11694.1
-11658.4
-11618.9
-11575.9
-11529.7
-11480.7
-11429.2
-11375.7
-11320.5
-11263.9
-11206.3
-11148.2
-11089.8
-11031.4
-10973.5
-10916.2
-10859.9
-10804.8
-10751.1
-10699
-10648.6
-10600.1
-10553.6
-10509.2
-10466.8
-10426.5
-10388.3
-10352.1
-10317.8
-10285.3
-10254.3
-10224.8
-10196.4
-10168.7
-10141.3
-10113.7
-10085.1
-10054.4
-10020.4
-9980.82
-9932.78
-9871.4
-9788.52
-9669.23
-9483.72
-9165.31
-8545.16
-7136.66
-7145.97
-8573.14
-9212.06
-9549.43
-9754.15
-9892.96
-9995.73
-10077.4
-10146.2
-10206.9
-10262.6
-10315.3
-10366.4
-10416.9
-10467.4
-10518.5
-10570.4
-10623.4
-10677.6
-10733.1
-10789.8
-10847.8
-10906.9
-10966.9
-11027.6
-11088.8
-11150.3
-11211.6
-11272.6
-11332.9
-11392
-11449.7
-11505.5
-11559
-11610
-11657.9
-11702.5
-11743.4
-11780.3
-11812.9
-11840.9
-11864
-11882.2
-11895.3
-11903
-11905.4
-11902.5
-11894.2
-11880.7
-11862
-11838.3
-11809.8
-11776.7
-11739.4
-11698
-11653
-11604.6
-11553.3
-11499.4
-11443.3
-11385.4
-11326
-11265.7
-11204.7
-11143.5
-11082.3
-11021.6
-10961.5
-10902.4
-10844.6
-10788.3
-10733.6
-10680.8
-10629.9
-10581.1
-10534.5
-10490.1
-10447.8
-10407.7
-10369.8
-10333.8
-10299.8
-10267.4
-10236.6
-10206.9
-10178.1
-10149.7
-10121.2
-10091.6
-10060.2
-10025.4
-9985.14
-9936.47
-9874.5
-9791.08
-9671.28
-9485.28
-9166.41
-8545.81
-7136.88
-7146.56
-8574.89
-9214.99
-9553.57
-9759.53
-9899.61
-10003.7
-10086.7
-10157
-10219.2
-10276.5
-10330.9
-10383.8
-10436.1
-10488.6
-10541.6
-10595.7
-10650.9
-10707.4
-10765.3
-10824.5
-10885
-10946.7
-11009.4
-11072.8
-11136.8
-11201.1
-11265.2
-11329
-11392
-11453.8
-11514.2
-11572.6
-11628.6
-11682
-11732.2
-11778.9
-11821.7
-11860.4
-11894.5
-11923.9
-11948.3
-11967.4
-11981.1
-11989.3
-11992
-11989
-11980.5
-11966.4
-11947
-11922.3
-11892.6
-11858.1
-11819.1
-11776
-11728.9
-11678.4
-11624.8
-11568.5
-11509.8
-11449.3
-11387.3
-11324.2
-11260.5
-11196.4
-11132.5
-11068.9
-11006.1
-10944.3
-10883.9
-10824.9
-10767.7
-10712.5
-10659.3
-10608.2
-10559.5
-10513
-10468.8
-10426.9
-10387.2
-10349.7
-10314.1
-10280.4
-10248.2
-10217.4
-10187.4
-10158
-10128.5
-10098.1
-10065.8
-10030.3
-9989.38
-9940.09
-9877.55
-9793.59
-9673.29
-9486.81
-9167.49
-8546.45
-7137.09
-7147.12
-8576.59
-9217.84
-9557.58
-9764.74
-9906.07
-10011.4
-10095.8
-10167.4
-10231.1
-10290
-10346
-10400.6
-10454.7
-10509.1
-10564.1
-10620.2
-10677.6
-10736.4
-10796.6
-10858.3
-10921.3
-10985.5
-11050.8
-11116.9
-11183.6
-11250.6
-11317.5
-11383.9
-11449.7
-11514.2
-11577.1
-11638
-11696.5
-11752.2
-11804.6
-11853.4
-11898.2
-11938.6
-11974.3
-12005
-12030.5
-12050.6
-12065
-12073.7
-12076.6
-12073.6
-12064.8
-12050.3
-12030.1
-12004.5
-11973.6
-11937.7
-11897.2
-11852.2
-11803.2
-11750.6
-11694.8
-11636.1
-11575
-11511.9
-11447.3
-11381.5
-11315.1
-11248.3
-11181.6
-11115.3
-11049.8
-10985.4
-10922.3
-10860.8
-10801.2
-10743.5
-10688
-10634.8
-10583.9
-10535.4
-10489.3
-10445.7
-10404.3
-10365.2
-10328.1
-10293
-10259.6
-10227.5
-10196.5
-10166.1
-10135.7
-10104.4
-10071.4
-10035.1
-9993.54
-9943.64
-9880.54
-9796.05
-9675.25
-9488.31
-9168.54
-8547.08
-7137.3
-7147.66
-8578.22
-9220.58
-9561.45
-9769.77
-9912.29
-10018.9
-10104.6
-10177.5
-10242.7
-10303
-10360.6
-10416.9
-10472.7
-10528.9
-10585.9
-10644
-10703.4
-10764.4
-10826.9
-10890.9
-10956.3
-11023
-11090.8
-11159.5
-11228.8
-11298.4
-11368
-11437.1
-11505.5
-11572.6
-11638
-11701.4
-11762.3
-11820.3
-11874.9
-11925.7
-11972.3
-12014.4
-12051.6
-12083.7
-12110.3
-12131.3
-12146.4
-12155.6
-12158.7
-12155.7
-12146.7
-12131.7
-12110.8
-12084.3
-12052.3
-12015.1
-11973
-11926.3
-11875.5
-11820.8
-11762.8
-11701.8
-11638.3
-11572.8
-11505.6
-11437.3
-11368.2
-11298.8
-11229.4
-11160.5
-11092.4
-11025.3
-10959.7
-10895.8
-10833.7
-10773.7
-10716
-10660.6
-10607.7
-10557.3
-10509.4
-10463.9
-10420.9
-10380.3
-10341.8
-10305.3
-10270.7
-10237.5
-10205.4
-10174
-10142.6
-10110.6
-10076.8
-10039.8
-9997.59
-9947.09
-9883.44
-9798.44
-9677.16
-9489.77
-9169.57
-8547.69
-7137.5
-7148.18
-8579.78
-9223.2
-9565.15
-9774.57
-9918.23
-10026
-10113
-10187.2
-10253.7
-10315.5
-10374.6