/*--------------------------------*- C++ -*----------------------------------*\
  =========                 |
  \\      /  F ield         | OpenFOAM: The Open Source CFD Toolbox
   \\    /   O peration     | Website:  https://openfoam.org
    \\  /    A nd           | Version:  9
     \\/     M anipulation  |
\*---------------------------------------------------------------------------*/
FoamFile
{
    format      ascii;
    class       volScalarField;
    location    "0.15";
    object      gradTx;
}
// * * * * * * * * * * * * * * * * * * * * * * * * * * * * * * * * * * * * * //

dimensions      [0 -1 0 1 0 0 0];

internalField   nonuniform List<scalar> 
200000
(
4965.63
2241.03
1320.1
916.29
700.196
568.633
482.036
422.37
380.236
350.216
328.933
314.141
304.269
298.161
294.934
293.887
294.444
296.123
298.508
301.235
303.981
306.46
308.412
309.607
309.839
308.926
306.709
303.054
297.85
291.01
282.471
272.195
260.169
246.404
230.935
213.823
195.148
175.017
153.554
130.903
107.225
82.6955
57.5031
31.8456
5.92774
-20.0414
-45.8517
-71.2948
-96.1672
-120.272
-143.425
-165.451
-186.191
-205.504
-223.267
-239.375
-253.746
-266.317
-277.048
-285.92
-292.935
-298.116
-301.506
-303.164
-303.169
-301.612
-298.601
-294.255
-288.703
-282.083
-274.543
-266.233
-257.313
-247.944
-238.291
-228.526
-218.821
-209.357
-200.32
-191.904
-184.317
-177.784
-172.554
-168.908
-167.172
-167.734
-171.073
-177.789
-188.669
-204.771
-227.573
-259.233
-303.045
-364.353
-452.488
-585.424
-802.679
-1207.4
-2128.94
-4853.86
9864.05
5604.98
3659.44
2647.19
2057.93
1684.81
1434.51
1260.35
1136.69
1048.32
985.569
941.953
912.882
894.965
885.598
882.705
884.579
889.783
897.077
905.374
913.712
921.23
927.154
930.793
931.529
928.816
922.179
911.214
895.589
875.041
849.383
818.501
782.355
740.978
694.478
643.033
586.892
526.368
461.838
393.735
322.542
248.789
173.04
95.8918
17.9596
-60.1282
-137.739
-214.248
-289.041
-361.528
-431.151
-497.387
-559.759
-617.84
-671.26
-719.704
-762.923
-800.731
-833.006
-859.691
-880.793
-896.381
-906.58
-911.572
-911.59
-906.914
-897.863
-884.796
-868.101
-848.195
-825.518
-800.526
-773.694
-745.509
-716.469
-687.083
-657.875
-629.382
-602.162
-576.798
-553.913
-534.178
-518.334
-507.22
-501.806
-503.245
-512.95
-532.698
-564.801
-612.357
-679.674
-772.979
-901.685
-1080.78
-1335.7
-1712.96
-2305.7
-3320.68
-5268.09
-9528.11
12811.6
8040.29
5584.64
4183.9
3317.11
2747.06
2355.77
2079.63
1881.88
1739.85
1638.76
1568.5
1521.81
1493.27
1478.68
1474.67
1478.46
1487.68
1500.3
1514.51
1528.74
1541.54
1551.64
1557.88
1559.24
1554.8
1543.79
1525.51
1499.42
1465.09
1422.19
1370.54
1310.07
1240.84
1163.03
1076.93
982.965
881.66
773.642
659.638
540.457
416.984
290.167
161.002
30.5203
-100.225
-230.177
-358.286
-483.526
-604.909
-721.498
-832.419
-936.873
-1034.14
-1123.61
-1204.75
-1277.14
-1340.47
-1394.54
-1439.24
-1474.6
-1500.72
-1517.82
-1526.2
-1526.24
-1518.43
-1503.28
-1481.41
-1453.46
-1420.13
-1382.14
-1340.28
-1295.33
-1248.1
-1199.42
-1150.15
-1101.15
-1053.33
-1007.6
-964.95
-926.394
-893.049
-866.136
-847.035
-837.334
-838.918
-854.08
-885.693
-937.465
-1014.33
-1123.07
-1273.36
-1479.56
-1763.96
-2163
-2739.96
-3612.59
-5017.9
-7476.67
-12249.6
14843.6
9869.52
7154.98
5517.38
4457.97
3738.52
3233.63
2872.02
2610.56
2421.69
2286.95
2193.37
2131.52
2094.23
2075.88
2071.94
2078.6
2092.64
2111.25
2131.95
2152.54
2171.03
2185.63
2194.74
2196.92
2190.89
2175.56
2149.98
2113.36
2065.11
2004.77
1932.08
1846.95
1749.46
1639.87
1518.59
1386.21
1243.48
1091.28
930.632
762.679
588.667
409.932
227.88
43.9626
-140.335
-323.521
-504.117
-680.676
-851.805
-1016.18
-1172.58
-1319.86
-1457.02
-1583.18
-1697.61
-1799.7
-1889.03
-1965.29
-2028.36
-2078.25
-2115.12
-2139.27
-2151.12
-2151.22
-2140.23
-2118.91
-2088.09
-2048.69
-2001.7
-1948.14
-1889.09
-1825.66
-1759
-1690.28
-1620.68
-1551.43
-1483.78
-1419.03
-1358.51
-1303.68
-1256.05
-1217.33
-1189.4
-1174.43
-1174.98
-1194.16
-1235.8
-1304.82
-1407.71
-1553.25
-1753.76
-2027.13
-2400.39
-2916.2
-3645.39
-4713.03
-6357.06
-9076.01
-14052.3
16375.1
11307.9
8454.83
6672.98
5483.73
4655.62
4063.43
3633.57
3319.95
3092.22
2929.48
2816.74
2742.84
2699.22
2679.04
2676.7
2687.52
2707.45
2732.97
2760.94
2788.55
2813.28
2832.84
2845.17
2848.44
2841.01
2821.45
2788.56
2741.32
2678.96
2600.89
2506.8
2396.54
2270.24
2128.22
1971.03
1799.42
1614.37
1417.02
1208.7
990.886
765.198
533.369
297.22
58.6389
-180.45
-418.111
-652.424
-881.513
-1103.57
-1316.88
-1519.83
-1710.98
-1889
-2052.76
-2201.29
-2333.84
-2449.81
-2548.84
-2630.76
-2695.57
-2743.49
-2774.89
-2790.33
-2790.52
-2776.32
-2748.69
-2708.73
-2657.63
-2596.64
-2527.12
-2450.45
-2368.08
-2281.46
-2192.12
-2101.59
-2011.44
-1923.28
-1838.77
-1759.62
-1687.67
-1624.85
-1573.31
-1535.41
-1513.86
-1511.83
-1533.12
-1582.41
-1665.63
-1790.47
-1967.22
-2210.06
-2539.14
-2984.12
-3590.46
-4431.21
-5631.14
-7421.33
-10280.1
-15350.2
17601.7
12486.4
9555.02
7684
6408.18
5503.1
4846.18
4364.03
4009.65
3751.32
3566.68
3439.37
3357
3309.85
3290.09
3291.24
3307.77
3334.92
3368.46
3404.65
3440.1
3471.75
3496.83
3512.85
3517.55
3508.93
3485.27
3445.06
3387.09
3310.38
3214.24
3098.26
2962.29
2806.47
2631.2
2437.17
2225.3
1996.8
1753.07
1495.77
1226.71
947.904
661.485
369.707
74.9008
-220.554
-514.265
-803.858
-1087.01
-1361.49
-1625.18
-1876.09
-2112.41
-2332.53
-2535.03
-2718.72
-2882.65
-3026.11
-3148.64
-3250
-3330.23
-3389.57
-3428.49
-3447.68
-3448.01
-3430.53
-3396.45
-3347.11
-3283.96
-3208.59
-3122.62
-3027.78
-2925.84
-2818.6
-2707.93
-2595.7
-2483.83
-2374.3
-2269.11
-2170.36
-2080.24
-2001.11
-1935.5
-1886.24
-1856.52
-1850.04
-1871.21
-1925.4
-2019.33
-2161.6
-2363.56
-2640.58
-3014.07
-3514.9
-4189.31
-5110.01
-6399.02
-8280.34
-11218.8
-16337.7
18628.6
13486.3
10508.5
8581.53
7248.31
6289.82
5586.41
5065.82
4681.15
4400.16
4199.73
4062.63
3975.56
3927.95
3911.13
3917.86
3941.88
3977.75
4020.62
4066.15
4110.4
4149.79
4181.07
4201.3
4207.83
4198.3
4170.66
4123.14
4054.28
3962.95
3848.32
3709.89
3547.5
3361.31
3151.8
2919.81
2666.43
2393.11
2101.54
1793.68
1471.73
1138.07
795.26
446.007
93.0988
-260.616
-612.272
-959.026
-1298.1
-1626.81
-1942.62
-2243.15
-2526.24
-2789.94
-3032.56
-3252.67
-3449.12
-3621.08
-3767.96
-3889.51
-3985.75
-4056.97
-4103.73
-4126.86
-4127.38
-4106.57
-4065.84
-4006.82
-3931.24
-3840.98
-3737.99
-3624.32
-3502.08
-3373.42
-3240.55
-3105.71
-2971.15
-2839.21
-2712.26
-2592.75
-2483.25
-2386.47
-2305.35
-2243.13
-2203.42
-2190.39
-2208.97
-2265.07
-2366
-2521.04
-2742.23
-3045.6
-3453.16
-3996.11
-4720.46
-5697.64
-7046.66
-8986
-11972.2
-17118.8
19518.3
14360.2
11354.1
9391.67
8020.73
7026.08
6290.47
5743
5337.22
5040.9
4830.53
4688.35
4600.43
4555.53
4544.32
4558.88
4592.33
4638.6
4692.25
4748.37
4802.5
4850.54
4888.78
4913.84
4922.66
4912.54
4881.07
4826.24
4746.34
4640.06
4506.44
4344.9
4155.27
3937.73
3692.85
3421.6
3125.28
2805.57
2464.45
2104.22
1727.44
1336.91
935.633
526.768
113.581
-300.589
-712.387
-1118.48
-1515.62
-1900.65
-2270.61
-2622.7
-2954.39
-3263.4
-3547.74
-3805.73
-4036.03
-4237.64
-4409.9
-4552.49
-4665.43
-4749.06
-4804.04
-4831.32
-4832.11
-4807.88
-4760.31
-4691.27
-4602.8
-4497.08
-4376.4
-4243.14
-4099.76
-3948.76
-3792.71
-3634.18
-3475.82
-3320.3
-3170.34
-3028.76
-2898.47
-2782.56
-2684.31
-2607.34
-2555.66
-2533.83
-2547.2
-2602.1
-2706.31
-2869.54
-3104.23
-3426.78
-3859.36
-4433.02
-5193.14
-6209.68
-7599.09
-9575.99
-12591.9
-17755
20311.3
15143.6
12120.2
10135.5
8740.32
7722.08
6965.37
6400.45
5981.47
5676.34
5461.46
5318.7
5233.71
5194.72
5191.85
5216.6
5261.53
5319.99
5385.98
5454.07
5519.25
5576.97
5623.01
5653.58
5665.21
5654.82
5619.71
5557.55
5466.43
5344.83
5191.67
5006.3
4788.51
4538.51
4256.99
3945.02
3604.14
3236.26
2843.67
2429.02
1995.25
1545.59
1083.5
612.61
136.694
-340.408
-814.825
-1282.72
-1740.34
-2184.06
-2610.44
-3016.29
-3398.66
-3754.92
-4082.78
-4380.31
-4645.95
-4878.54
-5077.32
-5241.91
-5372.34
-5468.99
-5532.61
-5564.29
-5565.43
-5537.71
-5483.06
-5403.63
-5301.75
-5179.94
-5040.81
-4887.11
-4721.63
-4547.26
-4366.91
-4183.53
-4000.11
-3819.69
-3645.35
-3480.24
-3327.63
-3190.94
-3073.82
-2980.2
-2914.44
-2881.46
-2886.92
-2937.52
-3041.34
-3208.39
-3451.34
-3786.69
-4236.55
-4831.65
-5616.58
-6660.03
-8076.46
-10077.8
-13112.6
-18286.1
21035.2
15861.8
12828
10829.7
9419.83
8387.27
7618.04
7043.32
6617.8
6309.63
6095.14
5956.04
5877.6
5847.67
5855.88
5893.24
5951.76
6024.28
6104.27
6185.78
6263.29
6331.76
6386.52
6423.33
6438.33
6428.06
6389.49
6320
6217.46
6080.14
5906.84
5696.83
5449.86
5166.2
4846.62
4492.35
4105.12
3687.12
3240.95
2769.61
2276.47
1765.18
1239.69
704.127
162.776
-379.986
-919.756
-1452.16
-1972.94
-2477.95
-2963.29
-3425.3
-3860.64
-4266.31
-4639.69
-4978.58
-5281.21
-5546.24
-5772.81
-5960.47
-6109.25
-6219.59
-6292.33
-6328.7
-6330.28
-6298.98
-6237
-6146.76
-6030.92
-5892.31
-5733.92
-5558.83
-5370.22
-5171.34
-4965.47
-4755.94
-4546.11
-4339.35
-4139.12
-3948.91
-3772.33
-3613.13
-3475.27
-3363
-3280.99
-3234.45
-3229.33
-3272.58
-3372.51
-3539.31
-3785.76
-4128.34
-4588.99
-5198.04
-5999.38
-7060.6
-8494.71
-10511.9
-13558.6
-18738.6
21709.8
16533.2
13493.6
11487.8
10069.9
9030.01
8254.95
7676.63
7250.2
6943.97
6734.31
6602.75
6534.32
6516.49
6538.49
6590.85
6665.12
6753.62
6849.33
6945.77
7036.95
7117.33
7181.78
7225.62
7244.57
7234.82
7192.99
7116.18
7001.99
6848.53
6654.45
6418.92
6141.7
5823.07
5463.9
5065.6
4630.11
4159.88
3657.84
3127.39
2572.29
1996.68
1404.99
801.872
192.16
-419.218
-1027.3
-1627.16
-2213.98
-2783.11
-3330.13
-3850.93
-4341.73
-4799.14
-5220.21
-5602.45
-5943.85
-6242.92
-6498.65
-6710.55
-6878.63
-7003.38
-7085.75
-7127.12
-7129.25
-7094.29
-7024.7
-6923.21
-6792.81
-6636.66
-6458.11
-6260.63
-6047.77
-5823.15
-5590.46
-5353.39
-5115.67
-4881.06
-4653.34
-4436.36
-4234.06
-4050.51
-3889.98
-3757
-3656.54
-3594.03
-3575.68
-3608.64
-3701.39
-3864.21
-4109.92
-4454.92
-4920.96
-5537.94
-6349.16
-7421.37
-8866.51
-10893.5
-13947.7
-19131.7
22349.7
17171.6
14129.4
12120.5
10699.6
9657.52
8881.9
8305.04
7882.41
7582.48
7381.59
7261.16
7205.96
7203.14
7241.56
7311.31
7403.48
7509.92
7623.09
7736.04
7842.26
7935.74
8010.89
8062.58
8086.13
8077.32
8032.44
7948.3
7822.25
7652.2
7436.64
7174.69
6866.05
6511.07
6110.72
5666.55
5180.75
4656.05
4095.73
3503.55
2883.76
2240.96
1580.09
906.359
225.169
-457.973
-1137.52
-1807.96
-2463.91
-3100.17
-3711.8
-4294.18
-4843.09
-5354.73
-5825.8
-6253.51
-6635.61
-6970.4
-7256.77
-7494.15
-7682.55
-7822.51
-7915.07
-7961.77
-7964.57
-7925.87
-7848.39
-7735.19
-7589.58
-7415.09
-7215.45
-6994.51
-6756.21
-6504.57
-6243.67
-5977.59
-5710.44
-5446.35
-5189.46
-4943.97
-4714.14
-4504.35
-4319.16
-4163.4
-4042.26
-3961.42
-3927.27
-3947.15
-4029.63
-4185.08
-4426.3
-4769.59
-5236.48
-5856.53
-6672.54
-7750.63
-9201.96
-11234.6
-14293.2
-19479.5
22965.9
17787.6
14745
12736.1
11315.9
10275.9
9503.94
8932.7
8517.88
8228.02
8039.43
7933.38
7894.41
7909.38
7966.75
8056.23
8168.44
8294.75
8427.16
8558.19
8680.88
8788.69
8875.59
8935.98
8964.77
8957.35
8909.66
8818.19
8680.05
8492.93
8255.19
7965.85
7624.61
7231.83
6788.61
6296.67
5758.42
5176.9
4555.75
3899.15
3211.78
2498.77
1765.6
1018.05
262.114
-496.098
-1250.42
-1994.74
-2723.07
-3429.62
-4108.91
-4755.82
-5365.63
-5934.13
-6457.65
-6933.06
-7357.87
-7730.18
-8048.74
-8312.92
-8522.72
-8678.71
-8782.05
-8834.44
-8838.05
-8795.52
-8709.87
-8584.47
-8422.99
-8229.35
-8007.64
-7762.11
-7497.13
-7217.12
-6926.57
-6629.95
-6331.77
-6036.53
-5748.74
-5472.93
-5213.71
-4975.75
-4763.91
-4583.26
-4439.24
-4337.75
-4285.35
-4289.49
-4358.87
-4503.87
-4737.28
-5075.29
-5539.25
-6158.42
-6975.21
-8055.25
-9509.13
-11544.4
-14605
-19792.5
23566.9
18389.2
15348
13341.5
11925
10890.2
10125.3
9563.19
9159.59
8883.09
8709.95
8621.25
8601.31
8636.67
8715.44
8826.9
8961.24
9109.36
9262.76
9413.49
9554.05
9677.46
9777.17
9847.14
9881.84
9876.26
9825.99
9727.21
9576.74
9372.09
9111.44
8793.74
8418.65
7986.6
7498.77
6957.08
6364.19
5723.44
5038.84
4315
3557.09
2770.76
1962.06
1137.37
303.289
-533.417
-1365.95
-2187.56
-2991.62
-3771.75
-4521.89
-5236.37
-5909.99
-6538.08
-7116.57
-7642.01
-8111.63
-8523.32
-8875.7
-9168.06
-9400.37
-9573.27
-9688.03
-9746.49
-9751.05
-9704.62
-9610.5
-9472.41
-9294.39
-9080.73
-8835.94
-8564.69
-8271.75
-7961.99
-7640.29
-7311.56
-6980.7
-6652.6
-6332.13
-6024.18
-5733.68
-5465.61
-5225.11
-5017.51
-4848.46
-4724.06
-4651.04
-4636.97
-4690.61
-4822.4
-5045.07
-5374.73
-5832.57
-6447.61
-7261.95
-8340.87
-9794.54
-11830.1
-14891.2
-20079
24159
18982.7
15944.3
13942
12531.6
11504.6
10749.6
10199.5
9810.02
9549.79
9394.9
9326.26
9327.94
9386.14
9488.62
9624.24
9782.75
9954.57
10130.7
10302.7
10462.6
10602.9
10716.5
10796.9
10838.2
10834.9
10782.3
10676.3
10513.2
10290.6
10006.3
9659.23
9249.05
8776.22
8242.03
7648.59
6998.82
6296.37
5545.64
4751.71
3920.23
3057.4
2169.87
1264.64
348.968
-569.732
-1483.98
-2386.36
-3269.6
-4126.68
-4950.93
-5736.11
-6476.51
-7166.98
-7803.04
-8380.9
-8897.48
-9350.49
-9738.35
-10060.3
-10316.3
-10507
-10633.8
-10698.8
-10704.4
-10654
-10551.2
-10399.9
-10204.6
-9970.1
-9701.21
-9403.06
-9080.88
-8739.95
-8385.61
-8023.17
-7657.97
-7295.26
-6940.33
-6598.4
-6274.72
-5974.61
-5703.46
-5466.87
-5270.7
-5121.24
-5025.36
-4990.75
-5026.25
-5142.31
-5351.64
-5670.29
-6119.3
-6727.51
-7536.79
-8612.14
-10063.4
-12097.5
-15157.8
-20345.2
24747.4
19572.9
16538.3
14541.8
13139.2
12122.3
11379.6
10843.9
10471.1
10229.7
10095.6
10049.5
10075.2
10158.5
10286.9
10448.8
10633.4
10830.8
11031.4
11226.2
11406.9
11565.2
11693.8
11785.6
11834.2
11833.7
11779
11665.7
11489.9
11248.7
10940.1
10562.7
10116.2
9601.1
9018.8
8371.6
7662.69
6896.08
6076.55
5209.64
4301.54
3359.03
2389.35
1400.16
399.401
-604.822
-1604.33
-2591.01
-3556.9
-4494.33
-5395.98
-6255.03
-7065.21
-7820.89
-8517.17
-9149.86
-9715.6
-10211.9
-10636.9
-10989.9
-11270.7
-11480.2
-11619.7
-11691.6
-11698.5
-11644.1
-11532.2
-11367.3
-11154.1
-10897.8
-10603.8
-10277.6
-9924.88
-9551.38
-9162.88
-8765.14
-8363.92
-7964.89
-7573.7
-7195.95
-6837.24
-6503.18
-6199.44
-5931.87
-5706.56
-5529.97
-5409.11
-5351.8
-5366.94
-5465.01
-5658.7
-5964.02
-6401.88
-7001
-7803.06
-8872.86
-10320.1
-12351.3
-15409.8
-20596.4
25335.6
20163.5
17133.5
15144.1
13750.9
12745.8
12017.3
11498.2
11144.4
10924
10813
10791.6
10843.5
10954.2
11110.5
11300.6
11513.3
11738
11964.7
12183.9
12386.6
12564.3
12708.9
12813
12869.5
12872.4
12815.9
12695.3
12506.6
12246.5
11912.8
11504.1
11020.1
10461.2
9829.04
9126.11
8355.85
7522.62
6631.64
5688.91
4701.17
3675.79
2620.67
1544.12
454.809
-638.448
-1726.74
-2801.23
-3853.24
-4874.39
-5856.73
-6792.81
-7675.79
-8499.52
-9258.64
-9948.59
-10565.7
-11107.1
-11571.1
-11956.6
-12263.5
-12492.6
-12645.5
-12724.7
-12733.2
-12674.6
-12553.4
-12374.4
-12142.6
-11863.8
-11543.6
-11188.2
-10803.7
-10396.2
-9972.03
-9537.42
-9098.53
-8661.47
-8232.27
-7816.92
-7421.34
-7051.46
-6713.25
-6412.8
-6156.4
-5950.72
-5802.91
-5720.89
-5713.64
-5791.66
-5967.68
-6257.62
-6682.34
-7270.44
-8063.49
-9126.11
-10567.8
-12595.1
-15651
-20836.4
25926.4
20756.9
17732.3
15750.9
14368.4
13376.7
12664.1
12163.6
11830.6
11633.3
11547.3
11552.8
11632.9
11772.8
11959.1
12179.3
12421.8
12675.5
12929.9
13175
13401.2
13599.4
13761.1
13878.3
13943.5
13950.1
13892.1
13764.4
13562.5
13283.1
12923.6
12482.8
11960
11355.9
10672.3
9911.69
9077.93
8175.71
7210.68
6189.35
5119.02
4007.67
2863.87
1696.65
515.381
-670.354
-1850.89
-3016.63
-4158.16
-5266.38
-6332.65
-7348.86
-8307.6
-9202.17
-10026.7
-10776.3
-11447
-12035.6
-12540.1
-12959.5
-13293.6
-13543.4
-13710.4
-13797.3
-13807.5
-13744.8
-13614.1
-13420.4
-13169.5
-12867.2
-12520
-12134.2
-11716.6
-11273.8
-10812.6
-10339.5
-9861.38
-9384.62
-8915.71
-8461.01
-8026.79
-7619.31
-7244.82
-6909.66
-6620.35
-6383.73
-6207.11
-6098.52
-6067.03
-6123.17
-6279.67
-6552.45
-6962.3
-7537.76
-8320.27
-9374.35
-10809.4
-12831.8
-15884.6
-21068.3
26521.5
21355
18336.4
16363.8
14993.2
14016.1
13320.9
12840.5
12530.1
12357.7
12298.6
12332.8
12443
12614
12832
13084
13358
13642.3
13926
14198.3
14449.3
14669.2
14849
14980.1
15054.7
15065.6
15006.4
14871.5
14656.3
14357.2
13971.4
13497.5
12934.9
12284.3
11547.5
10727.5
9828.14
8854.66
7813.1
6710.5
5554.75
4354.45
3118.87
1857.77
581.267
-700.27
-1976.39
-3236.72
-4471.06
-5669.57
-6822.9
-7922.27
-8959.63
-9927.76
-10820.3
-11631.9
-12358.1
-12995.8
-13542.6
-13997.3
-14359.9
-14631.1
-14813
-14908.1
-14920.1
-14853.4
-14712.9
-14504.2
-14233.4
-13907
-13531.7
-13114.6
-12662.7
-12183.2
-11683.5
-11170.6
-10651.6
-10133.6
-9623.31
-9127.59
-8653.05
-8206.26
-7793.77
-7422.18
-7098.24
-6828.97
-6621.83
-6484.97
-6427.54
-6460.14
-6595.51
-6849.55
-7243.03
-7804.42
-8575.1
-9619.51
-11047
-13063.8
-16112.8
-21294.7
27122
21958.7
18946.5
16983.6
15625.6
14664.3
13987.9
13528.9
13242.6
13096.7
13066.2
13130.7
13272.6
13476.4
13727.8
14013.3
14320.3
14636.8
14951.1
15252.1
15529
15771.7
15970.6
16116.5
16201.1
16216.8
16156.6
16014.8
15786.2
15467
15054.4
14546.6
13943.1
13244.8
12453.4
11572.1
10605.3
9558.41
8438
7251.63
6007.78
4715.72
3385.43
2027.41
652.574
-727.914
-2102.79
-3460.87
-4791.15
-6083.03
-7326.39
-8511.8
-9630.54
-10674.8
-11637.7
-12513.5
-13297.5
-13986
-14576.6
-15068
-15460.1
-15753.8
-15951.1
-16054.9
-16069
-15998.2
-15847.7
-15623.6
-15332.5
-14981.2
-14577
-14127.4
-13640.2
-13122.9
-12583.3
-12029.1
-11467.9
-10907.1
-10354
-9815.67
-9299.22
-8811.53
-8359.44
-7949.82
-7589.65
-7286.14
-7046.91
-6880.23
-6795.35
-6802.92
-6915.71
-7149.63
-7525.42
-8071.54
-8829.29
-9863.06
-11282.1
-13292.7
-16337.5
-21517.4
27728.1
22568.3
19562.9
17610.3
16265.9
15321.3
14664.7
14228.4
13967.5
13849.4
13848.9
13945.2
14120.4
14358.5
14644.7
14965.2
15306.8
15656.8
16003
16333.8
16637.9
16904.5
17123.3
17284.9
17380.1
17401
17340.3
17191.5
16949.5
16610
16169.9
15627.6
14982.4
14235.1
13387.8
12443.8
11407.8
10285.5
9084.13
7811.68
6477.27
5090.86
3663.15
2205.41
729.362
-752.999
-2229.58
-3688.34
-5117.48
-6505.58
-7841.78
-9115.9
-10318.6
-11441.4
-12477
-13419.1
-14262.7
-15003.7
-15639.7
-16169.1
-16591.9
-16908.9
-17122.2
-17235.1
-17251.6
-17176.7
-17016.1
-16776.3
-16464.3
-16087.4
-15653.5
-15170.7
-14647
-14090.7
-13510.1
-12913.4
-12308.6
-11703.6
-11106.2
-10523.8
-9964.04
-9433.98
-8940.82
-8491.71
-8093.86
-7754.66
-7481.92
-7284.04
-7170.34
-7151.56
-7240.5
-7453.09
-7810.07
-8339.86
-9083.74
-10106.1
-11516
-13519.8
-16560.2
-21737.8
28339.7
23183.5
20185.3
18243.4
16913.2
15986.2
15350.3
14937.8
14703.4
14614.4
14645.1
14774.6
14984.4
15258.1
15580.6
15937.3
16314.7
16699.5
17078.9
17440.7
17773
18064.4
18304.1
18481.9
18588.5
18615.1
18554
18398.5
18143
17783
17315.2
16737.7
16050
15252.9
14348.4
13340.3
12233.5
11034.2
9749.87
8389.29
6962.12
5479.04
3951.46
2391.48
811.637
-775.235
-2356.17
-3918.29
-5448.93
-6935.86
-8367.42
-9732.72
-11021.7
-12225.3
-13335.7
-14346
-15250.9
-16046.1
-16728.8
-17297.5
-17751.8
-18093
-18323
-18445.4
-18464.5
-18385.6
-18214.8
-17959
-17625.6
-17222.7
-16758.4
-16241.4
-15680.4
-15084.1
-14461.4
-13821
-13171.4
-12521
-11878
-11250.4
-10645.9
-10072.1
-9536.6
-9046.69
-8609.84
-8233.68
-7926.18
-7695.85
-7552.14
-7505.85
-7569.83
-7760.05
-8097.24
-8609.81
-9339.02
-10349.2
-11749.5
-13746
-16781.6
-21956.8
28955.8
23803.4
20812.7
18882
17566.6
16657.8
16043.4
15655.6
15448.7
15389.7
15452.9
15616.6
15862.1
16172.7
16532.5
16926.7
17341
17761.6
18175.3
18569.1
18930.6
19247.6
19509
19703.8
19822.2
19855
19794
19631.9
19363
18982.3
18486.5
17873.5
17142.6
16294.7
15332.2
14258.9
13079.9
11802.1
10433.3
8982.78
7460.97
5879.2
4249.66
2585.25
899.349
-794.334
-2481.96
-4149.77
-5784.23
-7372.28
-8901.45
-10360.1
-11737.4
-13023.8
-14210.8
-15291.1
-16258.9
-17109.7
-17840.4
-18449.4
-18936.3
-19302.3
-19549.7
-19682
-19703.9
-19621
-19439.9
-19167.9
-18812.9
-18383.4
-17888.1
-17336.3
-16737.1
-16100
-15434.3
-14749.2
-14053.7
-13356.9
-12667.2
-11993.1
-11342.8
-10724.2
-10145.1
-9613.27
-9136.3
-8722.07
-8378.7
-8114.86
-7940.1
-7865.31
-7903.4
-8070.35
-8386.93
-8881.52
-9595.39
-10592.8
-11983
-13971.9
-17002.5
-22175.2
29575.3
24426.7
21443.8
19524.6
18224.4
17334.4
16742.3
16379.7
16201.1
16173.1
16269.5
16468.4
16750.7
17099
17497.2
17929.8
18382
18839.5
19288.4
19715.1
20106.5
20450
20733.7
20946.2
21077
21116.4
21055.7
20887.3
20605
20203.7
19679.6
19030.7
18256.2
17357.1
16335.7
15196.2
13944.2
12586.6
11132
9590.17
7972.18
6290.09
4556.86
2786.21
992.389
-810.019
-2606.28
-4381.73
-6121.96
-7813.05
-9441.72
-10995.5
-12463
-13833.9
-15099
-16250.8
-17282.9
-18190.5
-18970.3
-19620.5
-20140.8
-20532.4
-20797.6
-20940.2
-20965.2
-20878.5
-20687.1
-20398.7
-20021.8
-19565.3
-19038.6
-18451.4
-17813.5
-17134.8
-16425.3
-15694.7
-14952.5
-14208.3
-13471
-12749.5
-12052.4
-11388
-10764.5
-10189.7
-9671.65
-9218.4
-8838.25
-8540.01
-8333.35
-8229.24
-8240.64
-8383.59
-8678.86
-9154.86
-9852.83
-10837.1
-12216.7
-14197.8
-17223.1
-22393.2
30196.2
25051.7
22076.7
20169.3
18884.7
18013.9
17444.4
17107.8
16958.2
16961.8
17092.1
17326.9
17646.7
18033.6
18470.9
18942.7
19433.7
19928.8
20413.6
20873.9
21296
21666.6
21973.3
22204
22347.6
22394
22334
22159.6
21864.1
21442.1
20889.8
20204.9
19386.5
18435.7
17355.1
16148.8
14822.9
13384.7
11843.4
10209.2
8493.88
6710.23
4872.01
2993.75
1090.58
-822.023
-2728.42
-4613.03
-6460.56
-8256.21
-9985.88
-11636.3
-13195.4
-14652
-15996.7
-17221.1
-18318.6
-19284
-20113.8
-20806.2
-21360.6
-21778.2
-22061.7
-22215
-22243.3
-22153
-21951.3
-21646.5
-21247.5
-20763.8
-20205.4
-19582.3
-18905.2
-18184.5
-17430.6
-16653.8
-15864.3
-15071.9
-14286.3
-13516.7
-12772.1
-12061.1
-11392.3
-10773.9
-10214
-9721
-9303.35
-8970
-8730.75
-8596.65
-8580.74
-8699.1
-8972.53
-9429.44
-10111.1
-11081.7
-12450.5
-14423.5
-17443.4
-22610.8
30816.6
25676.1
22709.2
20813.8
19545
18693.8
18147.4
17837.1
17716.8
17752.5
17917.3
18188.6
18546.4
18972.4
19449.5
19961.1
20491.4
21024.7
21546
22040.5
22493.8
22892.1
23222.2
23471.6
23628.5
23682.4
23623.4
23443.2
23134.7
22692.3
22111.8
21390.8
20528.5
19525.9
18385.7
17112.4
15712.2
14193.1
12564.4
10837.3
9023.93
7137.96
5193.9
3207.15
1193.68
-830.098
-2847.64
-4842.46
-6798.34
-8699.62
-10531.3
-12279.5
-13931.1
-15474.5
-16899.6
-18197.6
-19361.3
-20385.3
-21265.9
-22000.9
-22590
-23034.3
-23336.5
-23500.8
-23532.7
-23438.8
-23227
-22905.8
-22484.7
-21973.6
-21383.2
-20724.2
-20007.6
-19244.4
-18445.7
-17622.4
-16785.1
-15944.2
-15109.7
-14291.5
-13498.8
-12740.8
-12026.1
-11363.5
-10761.2
-10228
-9772.26
-9403.29
-9130.94
-8966.37
-8922.7
-9016.03
-9267.21
-9704.67
-10369.7
-11326.4
-12684.1
-14648.8
-17663.2
-22827.8
31434
26297.5
23338.8
21455.5
20202.7
19371.2
18848
18564.4
18473.7
18541.8
18741.4
19049.5
19445.6
19911.2
20428.3
20980.1
21550.1
22122
22680.2
23209.3
23694.2
24120.6
24474.6
24743
24913.6
24975.2
24917.6
24732
24410.8
23948.2
23339.8
22583
21676.9
20622.6
19423
18082.6
16608.2
15007.9
13291.9
11471.5
9559.94
7571.38
5521.17
3425.55
1301.39
-834.021
-2963.2
-5068.73
-7133.51
-9140.97
-11075.3
-12921.7
-14666.5
-16297.3
-17803.4
-19175.4
-20405.9
-21489.1
-22420.9
-23199.1
-23823.2
-24294.5
-24615.8
-24791.4
-24827.1
-24729.9
-24508
-24170.5
-23727.4
-23189
-22566.6
-21871.5
-21115.3
-20309.6
-19466
-18595.9
-17710.6
-16820.9
-15937.4
-15070.3
-14229.2
-13423.8
-12663.1
-11955.9
-11311
-10737.1
-10243
-9838.12
-9532.36
-9337.03
-9265.28
-9333.31
-9561.98
-9979.74
-10627.9
-11570.6
-12917.1
-14873.4
-17882.1
-23044
32045.5
26913.2
23962.6
22091.5
20854.7
20043
19543.2
19286.2
19225.2
19325.8
19560.3
19905.3
20339.9
20845.1
21402.5
21994.7
22604.5
23215.2
23810.5
24374.3
24891.2
25345.8
25723.9
26011.7
26196.3
26265.9
26210.1
26019.3
25685.8
25203.4
24567.5
23775.2
22825.8
21720.3
20461.5
19054.6
17506.2
15825.2
14022.1
12108.9
10099.3
8008.44
5852.31
3648.02
1413.32
-833.598
-3074.32
-5290.52
-7464.18
-9577.84
-11614.8
-13559.6
-15397.6
-17116
-18703.2
-20149.6
-21447.1
-22589.6
-23572.8
-24394.4
-25053.9
-25552.4
-25892.9
-26080.1
-26119.8
-26019.6
-25787.9
-25434.3
-24969.3
-24403.8
-23749.6
-23018.6
-22222.9
-21374.7
-20486.3
-19569.6
-18636.3
-17697.8
-16765.3
-15849.2
-14959.8
-14107
-13300.1
-12548.3
-11860.6
-11246
-10713.5
-10272.5
-9933.27
-9707.03
-9607.1
-9649.7
-9855.74
-10253.7
-10884.8
-11813.4
-13148.6
-15096.4
-18099.6
-23258.6
32648.2
27520
24577.5
22718.5
21497.8
20705.8
20229.2
19998.8
19967.5
20100.4
20369.7
20751.5
21224.5
21769.2
22366.8
22999.2
23648.8
24298.2
24930.6
25529.3
26078
26561.1
26963.4
27270.7
27469.5
27547.5
27493.7
27298.2
26952.9
26451.2
25788.3
24961.2
23969.1
22812.9
21495.8
20023
18401.6
16640.6
14751.2
12746
10639.3
8446.91
6185.67
3873.5
1529.02
-828.669
-3180.24
-5506.46
-7788.39
-10007.7
-12146.9
-14189.5
-16120.4
-17926
-19594.1
-21114.5
-22478.9
-23680.6
-24715.3
-25580.3
-26275.2
-26801
-27161
-27359.9
-27403.9
-27300.9
-27059.6
-26690.3
-26203.7
-25611.4
-24925.8
-24159.1
-23324.3
-22434
-21501.1
-20538
-19557.1
-18570.2
-17588.9
-16624.2
-15686.7
-14786.6
-13933.8
-13137.6
-12407.4
-11752.2
-11181.4
-10704.5
-10331.7
-10074.7
-9946.6
-9963.81
-10147.2
-10525.4
-11139.6
-12054.1
-13377.9
-15317.3
-18314.8
-23471
33238.9
28114.7
25180.3
23333.4
22128.5
21356
20902.4
20698.3
20696.3
20861.3
21165.1
21583.3
22094.4
22678.3
23315.7
23988
24677.1
25365
26034.2
26667.5
27248
27759.3
28185.9
28512.8
28726
28812.6
28761.2
28561.4
28204.8
27684.4
26995.2
26134.1
25100.1
23894.4
22520
20982.5
19289.1
17449.5
15475.2
13379.3
11176.9
8884.4
6519.47
4100.83
1647.97
-819.111
-3280.2
-5715.15
-8104.12
-10427.9
-12668.2
-14807.7
-16830.6
-18722.5
-20470.8
-22064.7
-23495.4
-24756
-25841.7
-26750
-27480
-28033.2
-28412.7
-28623.4
-28672
-28566.4
-28316
-27931.2
-27423.5
-26805
-26088.4
-25286.7
-24413.3
-23481.5
-22504.7
-21495.9
-20467.9
-19433.2
-18403.7
-17390.9
-16405.8
-15459.1
-14560.8
-13720.7
-12948.3
-12252.9
-11644.1
-11131.6
-10725.7
-10438.1
-10282.1
-10274.1
-10435.1
-10793.6
-11391
-12291.4
-13604.1
-15535
-18526.9
-23680.3
33814.3
28694.1
25767.6
23932.4
22743.1
21989.8
21558.9
21380.7
21407.6
21604.1
21941.7
22395.9
22944.4
23566.9
24243.5
24955.1
25683.1
26409
27114.6
27782.1
28394
28933.4
29384.1
29730.5
29958.1
30053.6
30004.9
29801.3
29433.9
28895.5
28180.9
27286.9
26212.3
24958.2
23528
21927.2
20163.7
18247.2
16189.7
14005.1
11709
9318.4
6851.82
4328.78
1769.6
-804.846
-3373.46
-5915.19
-8409.34
-10835.8
-13175.5
-15410.3
-17523.7
-19500.7
-21328
-22994.3
-24490.3
-25809
-26945.2
-27896.2
-28661.2
-29241.5
-29640.4
-29863.1
-29916.3
-29808.5
-29549.3
-29149.7
-28621.5
-27977.3
-27230.4
-26394.5
-25483.4
-24511
-23491.1
-22437.5
-21363.4
-20281.6
-19204.8
-18144.8
-17113
-16120.4
-15177.3
-14294
-13480.1
-12745.3
-12099.1
-11551.5
-11113
-10795.2
-10611.8
-10579
-10717.9
-11057
-11637.7
-12524.3
-13825.9
-15748.5
-18734.9
-23885.5
34370.8
29254.5
26335.7
24512.1
23337.9
22603.4
22194.6
22041.7
22096.7
22324.1
22694.9
23184.1
23769.2
24429.4
25144.3
25894.5
26660.6
27423.6
28164.9
28866
29508.8
30075.9
30550.3
30916.1
31158.2
31262.6
31216.9
31009.9
30632.5
30077
29338.1
28412.3
27298.4
25997.7
24513.4
22851.5
21019.8
19028.6
16890.5
14619.6
12232.3
9746.27
7180.75
4556.03
1893.26
-785.842
-3459.3
-6105.21
-8702
-11228.8
-13665.5
-15993.5
-18195.4
-20255.5
-22160.1
-23897.3
-25457.4
-26833
-28018.8
-29011.7
-29811.1
-30418.2
-30836.4
-31071
-31129.1
-31019.4
-30751.9
-30338
-29790
-29121
-28344.9
-27475.7
-26527.9
-25515.9
-24454.2
-23356.9
-22237.8
-21110.3
-19987.3
-18881.2
-17803.8
-16766.4
-15779.8
-14854.2
-13999.8
-13226.3
-12543.6
-11961.7
-11491.3
-11144.1
-10933.8
-10876.7
-10993.9
-11314.1
-11878.6
-12751.6
-14042.3
-15956.8
-18937.8
-24085.7
34905
29792.4
26881.2
25068.7
23909.3
23192.9
22805.5
22677.1
22759.5
23016.7
23419.6
23942.8
24563.5
25260.2
26012.4
26800
27603.1
28402.4
29178.4
29912.2
30585.1
31179.2
31677
32061.9
32318.2
32431.7
32389.3
32179.5
31792.8
31221.2
30459.1
29503
28351.6
27006.1
25469.9
23749.1
21851.8
19788.8
17572.9
15218.8
12743.5
10165.3
7504.19
4781.18
2018.24
-762.114
-3537.06
-6283.85
-8980.07
-11604
-14134.9
-16553.2
-18841
-20981.9
-22961.5
-24767.7
-26390.2
-27821.2
-29055.3
-30089.3
-30922.2
-31555.6
-31992.8
-32239.3
-32302.4
-32191.1
-31915.9
-31488.4
-30921.5
-30228.7
-29424.4
-28523.2
-27540
-26489.9
-25387.7
-24248.2
-23085.6
-21913.8
-20746.1
-19595.4
-18473.9
-17393.1
-16364.1
-15397.7
-14504
-13693.1
-12974.9
-12359.7
-11858.3
-11482.6
-11246.1
-11165.4
-11261.6
-11563.4
-12112.1
-12971.9
-14252.1
-16158.7
-19134.4
-24279.7
35413.3
30304.4
27400.3
25598.5
24453.3
23754.4
23387.6
23282.7
23391.3
23677.3
24111
24667
25321.8
26053.8
26841.9
27665.5
28504.4
29338.5
30148
30913.5
31615.7
32236
32756.5
33160
33430.5
33553
33514.2
33302.1
32906.8
32320.2
31536.4
30551.7
29364.7
27976.6
26391.1
24614.1
22654.3
20522.7
18232.3
15798.7
13239.2
10572.8
7820.05
5002.82
2143.78
-733.729
-3606.11
-6449.79
-9241.57
-11958.9
-14580.4
-17085.7
-19456.1
-21674.8
-23726.9
-25599.5
-27282.2
-28766.9
-30047.7
-31121.4
-31987
-32645.9
-33101.7
-33360
-33428.2
-33315.8
-33033.4
-32593.1
-32008.3
-31292.9
-30461.7
-29529.9
-28512.9
-27426.3
-26285.4
-25105.4
-23901.1
-22686.8
-21476.3
-20282.7
-19118.7
-17996.2
-16926.6
-15920.9
-14989.4
-14142.4
-13390.2
-12743
-12211.7
-11808.4
-11546.8
-11443.4
-11519.4
-11803.4
-12336.8
-13184
-14454
-16353
-19323.6
-24466.3
35892.4
30786.8
27889.6
26098.1
24966.3
24284
23936.8
23854.3
23988
24301.3
24764.4
25351.5
26039
26804.6
27626.9
28485
29358
30225.5
31067.2
31863
32593.3
33238.8
33781.2
34202.9
34487.1
34618.6
34583.6
34369.8
33966.9
33366.5
32562.4
31550.9
30330.6
28902.5
27270.4
25440.5
23421.6
21225
18864.3
16355.4
13716
10965.8
8126.17
5219.45
2269.1
-700.808
-3665.89
-6601.81
-9484.6
-12291
-14998.8
-17587
-20036.4
-22329.5
-24450.7
-26387
-28127.3
-29663.3
-30989
-32100.9
-32998
-33681.6
-34155.4
-34425.2
-34498.7
-34385.4
-34096.5
-33644.5
-33042.8
-32306.1
-31449.6
-30488.9
-29439.9
-28318.6
-27140.9
-25922.5
-24678.6
-23423.9
-22172.6
-20938.3
-19733.9
-18571.7
-17463.4
-16420.1
-15452.6
-14571.3
-13786.5
-13108.8
-12549.1
-12119.6
-11833.9
-11708.8
-11765.4
-12032.5
-12551.4
-13386.4
-14646.8
-16538.5
-19504.2