/*--------------------------------*- C++ -*----------------------------------*\
  =========                 |
  \\      /  F ield         | OpenFOAM: The Open Source CFD Toolbox
   \\    /   O peration     | Website:  https://openfoam.org
    \\  /    A nd           | Version:  9
     \\/     M anipulation  |
\*---------------------------------------------------------------------------*/
FoamFile
{
    format      ascii;
    class       volScalarField;
    location    "0.15";
    object      T;
}
// * * * * * * * * * * * * * * * * * * * * * * * * * * * * * * * * * * * * * //

dimensions      [0 0 0 1 0 0 0];

internalField   nonuniform List<scalar> 
200000
(
300.352
300.641
300.8
300.905
300.983
301.045
301.097
301.142
301.182
301.218
301.252
301.284
301.314
301.344
301.374
301.403
301.433
301.462
301.492
301.522
301.552
301.583
301.614
301.644
301.675
301.706
301.737
301.768
301.798
301.827
301.856
301.884
301.911
301.936
301.96
301.982
302.003
302.021
302.038
302.052
302.064
302.073
302.08
302.085
302.087
302.086
302.083
302.077
302.068
302.058
302.044
302.029
302.011
301.992
301.97
301.947
301.922
301.896
301.869
301.841
301.812
301.782
301.752
301.722
301.692
301.661
301.631
301.602
301.572
301.544
301.516
301.489
301.463
301.437
301.413
301.39
301.367
301.346
301.326
301.306
301.287
301.269
301.252
301.235
301.218
301.201
301.184
301.167
301.149
301.129
301.108
301.084
301.056
301.023
300.983
300.933
300.866
300.772
300.625
300.346
300.641
301.332
301.762
302.063
302.292
302.475
302.629
302.762
302.881
302.989
303.09
303.186
303.279
303.369
303.458
303.546
303.634
303.723
303.812
303.902
303.993
304.085
304.178
304.271
304.364
304.457
304.55
304.641
304.732
304.82
304.907
304.99
305.07
305.147
305.219
305.286
305.347
305.403
305.453
305.495
305.531
305.56
305.581
305.595
305.6
305.598
305.588
305.571
305.545
305.513
305.473
305.427
305.374
305.315
305.25
305.18
305.106
305.028
304.946
304.861
304.774
304.685
304.595
304.504
304.412
304.321
304.231
304.142
304.054
303.968
303.884
303.803
303.724
303.648
303.575
303.505
303.438
303.373
303.312
303.253
303.197
303.142
303.09
303.039
302.988
302.938
302.888
302.836
302.781
302.723
302.659
302.587
302.504
302.406
302.288
302.139
301.945
301.678
301.281
300.624
300.8
301.762
302.408
302.879
303.245
303.543
303.794
304.014
304.21
304.39
304.558
304.718
304.872
305.022
305.171
305.318
305.465
305.614
305.763
305.914
306.066
306.219
306.374
306.53
306.686
306.842
306.997
307.15
307.302
307.45
307.595
307.735
307.869
307.997
308.117
308.229
308.333
308.426
308.509
308.581
308.641
308.689
308.724
308.747
308.756
308.753
308.736
308.707
308.665
308.61
308.544
308.466
308.377
308.279
308.17
308.054
307.929
307.798
307.661
307.519
307.374
307.225
307.073
306.921
306.768
306.616
306.464
306.315
306.168
306.024
305.884
305.748
305.616
305.489
305.366
305.249
305.136
305.029
304.926
304.827
304.733
304.642
304.554
304.469
304.385
304.301
304.217
304.13
304.04
303.943
303.837
303.718
303.582
303.422
303.23
302.99
302.682
302.267
301.678
300.772
300.905
302.063
302.879
303.494
303.983
304.386
304.73
305.033
305.305
305.555
305.789
306.012
306.228
306.439
306.647
306.854
307.061
307.269
307.48
307.692
307.906
308.122
308.34
308.559
308.779
308.999
309.217
309.434
309.647
309.856
310.06
310.257
310.447
310.627
310.797
310.955
311.1
311.232
311.349
311.45
311.535
311.603
311.653
311.685
311.698
311.694
311.67
311.629
311.57
311.493
311.399
311.29
311.165
311.026
310.873
310.709
310.534
310.349
310.156
309.956
309.75
309.54
309.327
309.112
308.897
308.682
308.469
308.258
308.051
307.849
307.651
307.459
307.273
307.094
306.921
306.756
306.597
306.446
306.301
306.162
306.029
305.901
305.778
305.658
305.54
305.423
305.305
305.184
305.058
304.923
304.776
304.612
304.425
304.207
303.945
303.624
303.216
302.681
301.945
300.866
300.983
302.292
303.245
303.983
304.579
305.079
305.511
305.892
306.237
306.556
306.856
307.142
307.419
307.691
307.959
308.226
308.494
308.764
309.036
309.31
309.588
309.868
310.151
310.435
310.72
311.004
311.288
311.569
311.846
312.117
312.381
312.637
312.883
313.116
313.337
313.542
313.731
313.902
314.054
314.185
314.296
314.384
314.449
314.49
314.508
314.502
314.472
314.418
314.342
314.242
314.121
313.979
313.817
313.636
313.439
313.226
312.999
312.759
312.509
312.249
311.983
311.71
311.434
311.155
310.876
310.597
310.321
310.047
309.779
309.516
309.26
309.011
308.769
308.537
308.313
308.098
307.893
307.696
307.508
307.328
307.156
306.991
306.831
306.676
306.524
306.373
306.222
306.067
305.905
305.734
305.547
305.34
305.105
304.832
304.508
304.114
303.622
302.988
302.138
300.932
301.045
302.475
303.543
304.386
305.079
305.668
306.18
306.637
307.053
307.439
307.803
308.152
308.491
308.824
309.153
309.482
309.811
310.143
310.478
310.817
311.159
311.505
311.853
312.204
312.556
312.908
313.258
313.605
313.947
314.282
314.609
314.925
315.229
315.517
315.79
316.044
316.277
316.489
316.677
316.839
316.976
317.085
317.165
317.217
317.239
317.232
317.195
317.129
317.034
316.912
316.762
316.587
316.387
316.164
315.92
315.657
315.377
315.081
314.771
314.451
314.121
313.785
313.444
313.099
312.754
312.41
312.068
311.73
311.398
311.074
310.757
310.449
310.151
309.864
309.587
309.322
309.068
308.826
308.593
308.372
308.159
307.956
307.759
307.569
307.382
307.197
307.012
306.823
306.627
306.419
306.195
305.946
305.666
305.344
304.963
304.506
303.941
303.226
302.285
300.982
301.097
302.629
303.794
304.73
305.511
306.18
306.769
307.297
307.782
308.234
308.662
309.073
309.474
309.869
310.26
310.651
311.043
311.439
311.839
312.243
312.652
313.065
313.482
313.902
314.322
314.743
315.162
315.577
315.987
316.388
316.779
317.158
317.521
317.867
318.194
318.498
318.778
319.031
319.256
319.451
319.615
319.746
319.843
319.905
319.932
319.923
319.88
319.801
319.688
319.541
319.362
319.153
318.914
318.647
318.356
318.041
317.705
317.351
316.981
316.598
316.203
315.8
315.392
314.98
314.566
314.154
313.745
313.341
312.944
312.555
312.176
311.807
311.451
311.107
310.776
310.459
310.155
309.864
309.587
309.322
309.068
308.825
308.591
308.364
308.143
307.924
307.704
307.482
307.251
307.009
306.747
306.46
306.138
305.769
305.339
304.825
304.199
303.416
302.402
301.022
301.142
302.762
304.014
305.033
305.892
306.637
307.297
307.895
308.446
308.962
309.454
309.929
310.392
310.849
311.303
311.757
312.215
312.676
313.142
313.614
314.092
314.575
315.062
315.553
316.045
316.537
317.027
317.513
317.993
318.463
318.921
319.364
319.79
320.195
320.577
320.934
321.262
321.559
321.823
322.052
322.243
322.397
322.511
322.584
322.616
322.607
322.556
322.464
322.332
322.161
321.952
321.707
321.428
321.116
320.775
320.407
320.014
319.6
319.166
318.718
318.256
317.784
317.306
316.824
316.34
315.857
315.378
314.905
314.44
313.985
313.541
313.109
312.692
312.289
311.902
311.531
311.175
310.836
310.511
310.202
309.906
309.622
309.349
309.085
308.828
308.574
308.321
308.064
307.8
307.523
307.226
306.902
306.541
306.13
305.655
305.092
304.413
303.572
302.497
301.054
301.182
302.881
304.21
305.305
306.237
307.053
307.782
308.446
309.062
309.642
310.197
310.735
311.261
311.781
312.3
312.82
313.343
313.872
314.407
314.949
315.498
316.053
316.613
317.178
317.744
318.311
318.875
319.435
319.987
320.528
321.055
321.566
322.057
322.524
322.964
323.375
323.753
324.096
324.401
324.665
324.886
325.064
325.196
325.281
325.318
325.308
325.25
325.145
324.994
324.797
324.557
324.275
323.953
323.595
323.202
322.779
322.326
321.849
321.351
320.834
320.302
319.759
319.209
318.653
318.096
317.54
316.988
316.443
315.907
315.383
314.871
314.375
313.894
313.43
312.985
312.557
312.148
311.757
311.384
311.028
310.688
310.362
310.05
309.748
309.454
309.165
308.877
308.587
308.29
307.979
307.648
307.289
306.891
306.441
305.924
305.318
304.592
303.703
302.577
301.08
301.218
302.989
304.39
305.555
306.556
307.439
308.234
308.962
309.642
310.286
310.904
311.505
312.095
312.681
313.265
313.852
314.444
315.042
315.648
316.263
316.886
317.516
318.152
318.793
319.437
320.081
320.722
321.358
321.986
322.602
323.202
323.783
324.342
324.873
325.375
325.843
326.273
326.664
327.011
327.312
327.565
327.767
327.918
328.015
328.058
328.048
327.982
327.864
327.692
327.469
327.196
326.876
326.511
326.104
325.658
325.176
324.662
324.12
323.553
322.966
322.361
321.744
321.117
320.485
319.851
319.219
318.592
317.972
317.362
316.766
316.184
315.619
315.072
314.545
314.038
313.552
313.087
312.642
312.219
311.815
311.429
311.06
310.706
310.365
310.034
309.709
309.387
309.063
308.732
308.389
308.024
307.631
307.199
306.714
306.159
305.514
304.747
303.815
302.645
301.103
301.252
303.09
304.558
305.789
306.856
307.803
308.662
309.454
310.197
310.904
311.586
312.251
312.906
313.558
314.21
314.866
315.528
316.199
316.879
317.568
318.268
318.976
319.691
320.412
321.136
321.861
322.583
323.3
324.007
324.7
325.376
326.031
326.66
327.259
327.825
328.352
328.838
329.278
329.67
330.01
330.295
330.524
330.695
330.805
330.855
330.844
330.771
330.638
330.446
330.195
329.889
329.529
329.119
328.661
328.159
327.617
327.039
326.428
325.79
325.128
324.448
323.753
323.047
322.336
321.622
320.91
320.203
319.505
318.818
318.146
317.491
316.855
316.239
315.645
315.074
314.527
314.004
313.504
313.027
312.573
312.14
311.726
311.33
310.948
310.579
310.217
309.86
309.502
309.138
308.762
308.365
307.94
307.474
306.955
306.367
305.686
304.882
303.912
302.704
301.123
301.284
303.186
304.718
306.012
307.142
308.152
309.073
309.929
310.735
311.505
312.251
312.981
313.703
314.423
315.144
315.871
316.606
317.352
318.108
318.876
319.655
320.445
321.242
322.047
322.855
323.664
324.47
325.27
326.06
326.835
327.591
328.322
329.025
329.695
330.328
330.918
331.461
331.954
332.392
332.773
333.093
333.35
333.541
333.666
333.722
333.711
333.631
333.483
333.269
332.99
332.649
332.248
331.79
331.279
330.719
330.114
329.469
328.787
328.075
327.336
326.576
325.799
325.011
324.216
323.419
322.623
321.834
321.054
320.287
319.536
318.804
318.093
317.405
316.741
316.104
315.493
314.908
314.351
313.819
313.313
312.83
312.37
311.929
311.506
311.097
310.698
310.304
309.912
309.515
309.106
308.678
308.221
307.724
307.174
306.553
305.839
305.003
303.999
302.756
301.14
301.314
303.279
304.872
306.228
307.419
308.491
309.474
310.392
311.261
312.095
312.906
313.703
314.493
315.282
316.075
316.875
317.686
318.509
319.345
320.195
321.057
321.931
322.815
323.706
324.602
325.499
326.393
327.281
328.157
329.017
329.855
330.668
331.449
332.193
332.895
333.55
334.154
334.702
335.19
335.613
335.97
336.256
336.469
336.609
336.673
336.661
336.574
336.411
336.175
335.866
335.489
335.045
334.538
333.972
333.351
332.68
331.964
331.208
330.418
329.599
328.756
327.894
327.02
326.138
325.253
324.37
323.494
322.628
321.777
320.944
320.131
319.342
318.579
317.843
317.135
316.457
315.809
315.191
314.602
314.041
313.507
312.998
312.512
312.046
311.596
311.158
310.728
310.301
309.87
309.429
308.969
308.482
307.954
307.374
306.723
305.979
305.112
304.077
302.803
301.156
301.344
303.369
305.022
306.439
307.691
308.824
309.869
310.849
311.781
312.681
313.558
314.423
315.282
316.143
317.009
317.886
318.775
319.678
320.597
321.531
322.479
323.441
324.415
325.397
326.384
327.373
328.36
329.338
330.305
331.254
332.179
333.076
333.938
334.76
335.535
336.26
336.927
337.532
338.072
338.54
338.935
339.252
339.489
339.644
339.716
339.705
339.61
339.432
339.172
338.833
338.418
337.929
337.37
336.747
336.063
335.323
334.534
333.701
332.83
331.926
330.996
330.046
329.081
328.108
327.132
326.158
325.191
324.236
323.297
322.377
321.481
320.61
319.768
318.956
318.175
317.428
316.713
316.031
315.382
314.765
314.178
313.618
313.084
312.573
312.081
311.604
311.136
310.673
310.209
309.735
309.244
308.726
308.169
307.56
306.88
306.107
305.212
304.148
302.846
301.17
301.374
303.458
305.171
306.647
307.959
309.153
310.26
311.303
312.3
313.265
314.21
315.144
316.075
317.009
317.952
318.907
319.877
320.864
321.868
322.89
323.929
324.982
326.049
327.126
328.208
329.293
330.375
331.45
332.511
333.552
334.569
335.554
336.501
337.403
338.256
339.052
339.786
340.452
341.045
341.561
341.995
342.345
342.607
342.779
342.86
342.849
342.746
342.552
342.268
341.898
341.443
340.908
340.296
339.612
338.862
338.052
337.186
336.272
335.316
334.325
333.304
332.261
331.203
330.135
329.063
327.994
326.932
325.883
324.852
323.843
322.858
321.902
320.978
320.086
319.23
318.409
317.625
316.877
316.166
315.489
314.846
314.234
313.651
313.094
312.558
312.04
311.534
311.035
310.536
310.029
309.507
308.959
308.373
307.735
307.028
306.228
305.305
304.215
302.886
301.183
301.403
303.546
305.318
306.854
308.226
309.482
310.651
311.757
312.82
313.852
314.866
315.871
316.875
317.886
318.907
319.943
320.997
322.07
323.163
324.276
325.408
326.558
327.721
328.896
330.078
331.263
332.445
333.619
334.778
335.917
337.028
338.105
339.141
340.128
341.061
341.932
342.735
343.465
344.114
344.68
345.156
345.54
345.828
346.018
346.108
346.098
345.987
345.777
345.469
345.066
344.57
343.986
343.319
342.573
341.755
340.87
339.925
338.927
337.883
336.799
335.685
334.545
333.389
332.221
331.05
329.882
328.721
327.575
326.448
325.344
324.268
323.224
322.213
321.239
320.303
319.406
318.55
317.733
316.957
316.219
315.517
314.851
314.217
313.611
313.03
312.47
311.924
311.388
310.854
310.315
309.761
309.183
308.568
307.903
307.168
306.342
305.394
304.278
302.923
301.196
301.433
303.634
305.465
307.061
308.494
309.811
311.043
312.215
313.343
314.444
315.528
316.606
317.686
318.775
319.877
320.997
322.137
323.3
324.485
325.693
326.922
328.17
329.434
330.712
331.997
333.286
334.571
335.849
337.111
338.35
339.56
340.733
341.861
342.937
343.953
344.902
345.778
346.574
347.283
347.9
348.42
348.84
349.156
349.364
349.464
349.455
349.337
349.11
348.776
348.339
347.802
347.168
346.443
345.633
344.743
343.781
342.753
341.668
340.532
339.354
338.141
336.901
335.642
334.372
333.097
331.825
330.562
329.315
328.087
326.886
325.715
324.577
323.477
322.417
321.398
320.422
319.49
318.602
317.758
316.956
316.195
315.472
314.784
314.129
313.502
312.898
312.312
311.737
311.167
310.594
310.009
309.401
308.758
308.064
307.304
306.452
305.478
304.338
302.959
301.208
301.462
303.723
305.614
307.269
308.764
310.143
311.439
312.676
313.872
315.042
316.199
317.352
318.509
319.678
320.864
322.07
323.3
324.554
325.835
327.14
328.47
329.821
331.19
332.573
333.965
335.361
336.755
338.14
339.508
340.852
342.165
343.437
344.661
345.829
346.932
347.964
348.915
349.779
350.55
351.221
351.788
352.245
352.589
352.818
352.929
352.921
352.795
352.551
352.191
351.719
351.138
350.453
349.668
348.791
347.828
346.786
345.673
344.496
343.265
341.988
340.674
339.33
337.965
336.588
335.205
333.826
332.456
331.103
329.772
328.469
327.199
325.965
324.772
323.622
322.517
321.459
320.449
319.487
318.572
317.704
316.88
316.099
315.356
314.65
313.974
313.326
312.698
312.084
311.478
310.871
310.253
309.615
308.943
308.222
307.435
306.558
305.56
304.396
302.994
301.22
301.492
303.812
305.763
307.48
309.036
310.478
311.839
313.142
314.407
315.648
316.879
318.108
319.345
320.597
321.868
323.163
324.485
325.835
327.213
328.62
330.053
331.51
332.987
334.48
335.983
337.49
338.996
340.492
341.97
343.423
344.842
346.217
347.541
348.804
349.998
351.114
352.144
353.079
353.914
354.642
355.257
355.753
356.127
356.377
356.499
356.493
356.359
356.098
355.712
355.204
354.578
353.839
352.993
352.047
351.008
349.883
348.681
347.411
346.082
344.703
343.283
341.831
340.356
338.868
337.375
335.884
334.404
332.942
331.503
330.095
328.722
327.389
326.099
324.856
323.662
322.519
321.428
320.389
319.402
318.464
317.576
316.734
315.935
315.175
314.45
313.755
313.085
312.431
311.788
311.146
310.496
309.826
309.126
308.378
307.565
306.663
305.641
304.453
303.028
301.231
301.522
303.902
305.914
307.692
309.31
310.817
312.243
313.614
314.949
316.263
317.568
318.876
320.195
321.531
322.89
324.276
325.693
327.14
328.62
330.131
331.67
333.236
334.825
336.43
338.048
339.671
341.291
342.902
344.494
346.059
347.588
349.07
350.497
351.859
353.146
354.349
355.46
356.47
357.372
358.158
358.822
359.36
359.765
360.037
360.171
360.167
360.025
359.747
359.333
358.788
358.117
357.323
356.414
355.397
354.279
353.069
351.777
350.41
348.979
347.495
345.966
344.403
342.815
341.212
339.604
337.999
336.404
334.829
333.28
331.763
330.283
328.847
327.458
326.119
324.833
323.602
322.428
321.309
320.246
319.238
318.283
317.378
316.521
315.706
314.931
314.188
313.474
312.779
312.097
311.42
310.737
310.037
309.307
308.532
307.693
306.766
305.72
304.509
303.061
301.242
301.552
303.993
306.066
307.906
309.588
311.159
312.652
314.092
315.498
316.886
318.268
319.655
321.057
322.479
323.929
325.408
326.922
328.47
330.053
331.67
333.32
334.998
336.701
338.423
340.158
341.899
343.638
345.367
347.076
348.757
350.398
351.991
353.524
354.987
356.371
357.665
358.859
359.946
360.916
361.763
362.479
363.058
363.497
363.791
363.938
363.937
363.787
363.491
363.05
362.467
361.749
360.899
359.926
358.835
357.637
356.34
354.953
353.487
351.953
350.36
348.719
347.041
345.337
343.617
341.89
340.166
338.455
336.763
335.099
333.47
331.882
330.34
328.848
327.41
326.03
324.708
323.447
322.247
321.106
320.025
319.002
318.032
317.115
316.244
315.416
314.626
313.865
313.129
312.409
311.695
310.978
310.247
309.488
308.685
307.82
306.868
305.799
304.565
303.095
301.253
301.583
304.085
306.219
308.122
309.868
311.505
313.065
314.575
316.053
317.516
318.976
320.445
321.931
323.441
324.982
326.558
328.17
329.821
331.51
333.236
334.998
336.791
338.611
340.452
342.307
344.169
346.03
347.88
349.71
351.509
353.266
354.972
356.614
358.182
359.665
361.052
362.333
363.498
364.539
365.448
366.217
366.841
367.313
367.631
367.791
367.793
367.636
367.322
366.853
366.232
365.466
364.559
363.519
362.354
361.074
359.687
358.205
356.637
354.996
353.291
351.536
349.741
347.917
346.076
344.228
342.383
340.551
338.741
336.959
335.215
333.515
331.864
330.267
328.728
327.25
325.835
324.486
323.201
321.981
320.825
319.731
318.696
317.717
316.789
315.908
315.067
314.261
313.482
312.722
311.971
311.22
310.457
309.668
308.838
307.947
306.97
305.877
304.62
303.127
301.264
301.614
304.178
306.374
308.34
310.151
311.853
313.482
315.062
316.613
318.152
319.691
321.242
322.815
324.415
326.049
327.721
329.434
331.19
332.987
334.825
336.701
338.611
340.55
342.513
344.491
346.477
348.462
350.436
352.388
354.308
356.185
358.006
359.759
361.434
363.018
364.501
365.87
367.117
368.231
369.203
370.027
370.695
371.203
371.545
371.72
371.725
371.561
371.229
370.731
370.072
369.257
368.292
367.185
365.944
364.58
363.102
361.522
359.85
358.1
356.282
354.41
352.495
350.549
348.585
346.613
344.644
342.689
340.756
338.855
336.994
335.179
333.416
331.711
330.069
328.491
326.982
325.542
324.171
322.87
321.638
320.472
319.369
318.327
317.34
316.404
315.513
314.66
313.837
313.037
312.249
311.464
310.668
309.85
308.991
308.073
307.072
305.955
304.675
303.16
301.275
301.644
304.271
306.53
308.559
310.435
312.204
313.902
315.553
317.178
318.793
320.412
322.047
323.706
325.397
327.126
328.896
330.712
332.573
334.48
336.43
338.423
340.452
342.513
344.598
346.702
348.814
350.925
353.025
355.103
357.146
359.143
361.082
362.949
364.733
366.421
368
369.46
370.789
371.977
373.016
373.895
374.61
375.153
375.521
375.711
375.72
375.549
375.199
374.672
373.974
373.11
372.086
370.911
369.593
368.144
366.573
364.894
363.117
361.256
359.323
357.331
355.295
353.225
351.135
349.037
346.942
344.861
342.805
340.782
338.8
336.868
334.993
333.178
331.43
329.751
328.145
326.612
325.154
323.771
322.46
321.221
320.05
318.943
317.897
316.905
315.962
315.061
314.195
313.353
312.528
311.708
310.88
310.031
309.144
308.2
307.174
306.033
304.73
303.193
301.286
301.675
304.364
306.686
308.779
310.72
312.556
314.322
316.045
317.744
319.437
321.136
322.855
324.602
326.384
328.208
330.078
331.997
333.965
335.983
338.048
340.158
342.307
344.491
346.702
348.932
351.171
353.41
355.638
357.842
360.011
362.131
364.189
366.172
368.066
369.859
371.537
373.089
374.502
375.766
376.87
377.807
378.569
379.15
379.544
379.748
379.762
379.584
379.216
378.661
377.924
377.01
375.927
374.683
373.288
371.752
370.088
368.308
366.425
364.451
362.402
360.29
358.13
355.934
353.717
351.491
349.269
347.061
344.878
342.732
340.629
338.579
336.588
334.662
332.807
331.025
329.321
327.695
326.148
324.68
323.291
321.977
320.736
319.565
318.458
317.41
316.415
315.466
314.554
313.672
312.808
311.952
311.092
310.213
309.297
308.327
307.275
306.11
304.785
303.226
301.296
301.706
304.457
306.842
308.999
311.004
312.908
314.743
316.537
318.311
320.081
321.861
323.664
325.499
327.373
329.293
331.263
333.286
335.361
337.49
339.671
341.899
344.169
346.477
348.814
351.171
353.54
355.908
358.264
360.596
362.891
365.135
367.314
369.413
371.419
373.318
375.096
376.741
378.239
379.579
380.752
381.747
382.557
383.174
383.595
383.816
383.834
383.65
383.265
382.681
381.905
380.941
379.799
378.485
377.012
375.391
373.632
371.751
369.76
367.674
365.507
363.274
360.989
358.667
356.322
353.967
351.615
349.279
346.97
344.698
342.473
340.303
338.196
336.158
334.195
332.309
330.506
328.785
327.149
325.596
324.127
322.738
321.427
320.19
319.022
317.917
316.869
315.871
314.915
313.991
313.089
312.197
311.304
310.394
309.451
308.453
307.377
306.188
304.84
303.258
301.307
301.737
304.55
306.997
309.217
311.288
313.258
315.162
317.027
318.875
320.722
322.583
324.47
326.393
328.36
330.375
332.445
334.571
336.755
338.996
341.291
343.638
346.03
348.462
350.925
353.41
355.908
358.406
360.891
363.352
365.773
368.142
370.441
372.658
374.777
376.783
378.661
380.399
381.983
383.401
384.641
385.695
386.553
387.209
387.658
387.894
387.918
387.728
387.325
386.714
385.899
384.886
383.684
382.301
380.75
379.042
377.19
375.207
373.108
370.909
368.624
366.269
363.86
361.41
358.936
356.452
353.971
351.506
349.069
346.672
344.324
342.034
339.811
337.66
335.587
333.598
331.694
329.879
328.152
326.515
324.965
323.5
322.119
320.816
319.586
318.425
317.324
316.277
315.275
314.31
313.369
312.442
311.516
310.575
309.604
308.579
307.478
306.265
304.895
303.291
301.318
301.768
304.641
307.15
309.434
311.569
313.605
315.577
317.513
319.435
321.358
323.3
325.27
327.281
329.338
331.45
333.619
335.849
338.14
340.492
342.902
345.367
347.88
350.436
353.025
355.638
358.264
360.891
363.506
366.095
368.643
371.136
373.557
375.891
378.122
380.235
382.214
384.046
385.716
387.211
388.52
389.633
390.54
391.234
391.71
391.964
391.993
391.797
391.378
390.739
389.885
388.824
387.562
386.112
384.483
382.688
380.742
378.659
376.453
374.141
371.738
369.262
366.727
364.151
361.549
358.935
356.325
353.731
351.167
348.645
346.173
343.764
341.424
339.16
336.979
334.885
332.882
330.971
329.154
327.432
325.801
324.262
322.809
321.44
320.149
318.931
317.777
316.682
315.635
314.627
313.648
312.686
311.727
310.756
309.755
308.705
307.578
306.342
304.949
303.323
301.329
301.798
304.732
307.302
309.647
311.846
313.947
315.987
317.993
319.987
321.986
324.007
326.06
328.157
330.305
332.511
334.778
337.111
339.508
341.97
344.494
347.076
349.71
352.388
355.103
357.842
360.596
363.352
366.095
368.812
371.486
374.102
376.643
379.094
381.437
383.657
385.736
387.661
389.417
390.989
392.367
393.539
394.495
395.228
395.732
396.003
396.038
395.837
395.402
394.736
393.844
392.734
391.415
389.896
388.191
386.311
384.272
382.088
379.776
377.352
374.833
372.236
369.578
366.876
364.146
361.404
358.665
355.944
353.253
350.605
348.012
345.483
343.027
340.651
338.362
336.165
334.062
332.057
330.151
328.343
326.633
325.018
323.495
322.061
320.709
319.433
318.227
317.083
315.991
314.942
313.925
312.927
311.935
310.934
309.906
308.829
307.678
306.418
305.002
303.355
301.339
301.827
304.82
307.45
309.856
312.117
314.282
316.388
318.463
320.528
322.602
324.7
326.835
329.017
331.254
333.552
335.917
338.35
340.852
343.423
346.059
348.757
351.509
354.308
357.146
360.011
362.891
365.773
368.643
371.486
374.284
377.023
379.683
382.249
384.703
387.028
389.207
391.225
393.065
394.715
396.16
397.391
398.396
399.167
399.7
399.988
400.029
399.824
399.373
398.681
397.752
396.595
395.219
393.634
391.853
389.889
387.758
385.476
383.059
380.525
377.891
375.175
372.395
369.568
366.712
363.844
360.978
358.13
355.315
352.544
349.83
347.183
344.612
342.126
339.73
337.43
335.229
333.13
331.135
329.244
327.455
325.766
324.173
322.674
321.261
319.93
318.672
317.479
316.343
315.253
314.198
313.165
312.141
311.11
310.054
308.952
307.776
306.493
305.055
303.386
301.35
301.856
304.907
307.595
310.06
312.381
314.609
316.779
318.921
321.055
323.202
325.376
327.591
329.855
332.179
334.569
337.028
339.56
342.165
344.842
347.588
350.398
353.266
356.185
359.143
362.131
365.135
368.142
371.136
374.102
377.023
379.881
382.659
385.338
387.901
390.33
392.607
394.715
396.64
398.365
399.878
401.166
402.219
403.03
403.59
403.895
403.944
403.734
403.269
402.551
401.587
400.384
398.952
397.302
395.447
393.402
391.182
388.803
386.284
383.641
380.895
378.062
375.162
372.214
369.234
366.241
363.251
360.279
357.341
354.449
351.617
348.854
346.171
343.575
341.074
338.673
336.376
334.185
332.103
330.129
328.262
326.5
324.84
323.276
321.804
320.417
319.108
317.868
316.688
315.558
314.466
313.399
312.343
311.283
310.2
309.072
307.872
306.567
305.107
303.417
301.36
301.884
304.99
307.735
310.257
312.637
314.925
317.158
319.364
321.566
323.783
326.031
328.322
330.668
333.076
335.554
338.105
340.733
343.437
346.217
349.07
351.991
354.972
358.006
361.082
364.189
367.314
370.441
373.557
376.643
379.683
382.659
385.551
388.341
391.011
393.541
395.913
398.111
400.117
401.917
403.495
404.841
405.942
406.79
407.378
407.701
407.757
407.544
407.065
406.323
405.324
404.077
402.591
400.879
398.952
396.827
394.52
392.048
389.429
386.681
383.825
380.879
377.863
374.795
371.696
368.581
365.47
362.377
359.319
356.31
353.361
350.486
347.692
344.99
342.387
339.887
337.496
335.216
333.048
330.994
329.051
327.218
325.49
323.864
322.334
320.893
319.534
318.248
317.026
315.856
314.727
313.627
312.541
311.452
310.342
309.189
307.966
306.639
305.158
303.447
301.37
301.911
305.07
307.869
310.447
312.883
315.229
317.521
319.79
322.057
324.342
326.66
329.025
331.449
333.938
336.501
339.141
341.861
344.661
347.541
350.497
353.524
356.614
359.759
362.949
366.172
369.413
372.658
375.891
379.094
382.249
385.338
388.341
391.239
394.012
396.64
399.106
401.39
403.476
405.348
406.991
408.391
409.539
410.425
411.04
411.381
411.444
411.228
410.736
409.972
408.94
407.651
406.113
404.34
402.345
400.144
397.753
395.19
392.475
389.626
386.664
383.608
380.479
377.297
374.081
370.849
367.62
364.411
361.237
358.113
355.053
352.067
349.168
346.363
343.66
341.065
338.582
336.215
333.965
331.832
329.816
327.913
326.121
324.435
322.848
321.355
319.948
318.617
317.353
316.145
314.981
313.848
312.732
311.615
310.479
309.302
308.057
306.708
305.207
303.476
301.38
301.936
305.147
307.997
310.627
313.116
315.517
317.867
320.195
322.524
324.873
327.259
329.695
332.193
334.76
337.403
340.128
342.937
345.829
348.804
351.859
354.987
358.182
361.434
364.733
368.066
371.419
374.777
378.122
381.437
384.703
387.901
391.011
394.012
396.884
399.607
402.162
404.53
406.693
408.634
410.339
411.794
412.987
413.909
414.551
414.909
414.98
414.762
414.259
413.472
412.41
411.081
409.494
407.664
405.603
403.329
400.858
398.209
395.401
392.455
389.392
386.231
382.994
379.702
376.374
373.03
369.688
366.367
363.082
359.848
356.68
353.589
350.588
347.683
344.885
342.198
339.628
337.177
334.848
332.64
330.552
328.583
326.729
324.984
323.343
321.8
320.345
318.971
317.667
316.423
315.225
314.061
312.916
311.772
310.612
309.412
308.144
306.775
305.254
303.504
301.389
301.96
305.219
308.117
310.797
313.337
315.79
318.194
320.577
322.964
325.375
327.825
330.328
332.895
335.535
338.256
341.061
343.953
346.932
349.998
353.146
356.371
359.665
363.018
366.421
369.859
373.318
376.783
380.235
383.657
387.028
390.33
393.541
396.64
399.607
402.421
405.061
407.509
409.745
411.754
413.518
415.025
416.261
417.218
417.887
418.262
418.34
418.122
417.607
416.801
415.71
414.343
412.711
410.826
408.703
406.36
403.813
401.082
398.188
395.15
391.99
388.73
385.39
381.993
378.559
375.108
371.66
368.231
364.84
361.502
358.232
355.041
351.942
348.943
346.054
343.28
340.626
338.095
335.69
333.41
331.255
329.223
327.309
325.508
323.816
322.224
320.725
319.31
317.968
316.688
315.458
314.264
313.091
311.923
310.738
309.516
308.228
306.839
305.299
303.531
301.398
301.982
305.286
308.229
310.955
313.542
316.044
318.498
320.934
323.375
325.843
328.352
330.918
333.55
336.26
339.052
341.932
344.902
347.964
351.114
354.349
357.665
361.052
364.501
368
371.537
375.096
378.661
382.214
385.736
389.207
392.607
395.913
399.106
402.162
405.061
407.782
410.305
412.612
414.684
416.505
418.061
419.339
420.329
421.023
421.415
421.502
421.282
420.758
419.934
418.817
417.415
415.74
413.804
411.624
409.216
406.598
403.791
400.815
397.69
394.44
391.086
387.651
384.155
380.621
377.07
373.52
369.991
366.501
363.064
359.697
356.412
353.221
350.133
347.158
344.301
341.568
338.963
336.486
334.139
331.92
329.827
327.857
326.004
324.263
322.626
321.085
319.63
318.252
316.939
315.679
314.457
313.258
312.065
310.858
309.615
308.307
306.899
305.341
303.556
301.406
302.003
305.347
308.333
311.1
313.731
316.277
318.778
321.262
323.753
326.273
328.838
331.461
334.154
336.927
339.786
342.735
345.778
348.915
352.144
355.46
358.859
362.333
365.87
369.46
373.089
376.741
380.399
384.046
387.661
391.225
394.715
398.111
401.39
404.53
407.509
410.305
412.9
415.271
417.403
419.277
420.879
422.197
423.219
423.937
424.345
424.44
424.221
423.689
422.849
421.707
420.273
418.559
416.577
414.344
411.876
409.193
406.315
403.263
400.058
396.724
393.284
389.759
386.172
382.545
378.9
375.257
371.634
368.051
364.523
361.066
357.693
354.416
351.245
348.19
345.256
342.45
339.773
337.23
334.82
332.541
330.392
328.37
326.468
324.681
323.001
321.421
319.93
318.518
317.174
315.885
314.636
313.413
312.197
310.97
309.707
308.381
306.956
305.381
303.58
301.414
302.021
305.403
308.426
311.232
313.902
316.489
319.031
321.559
324.096
326.664
329.278
331.954
334.702
337.532
340.452
343.465