/*--------------------------------*- C++ -*----------------------------------*\
  =========                 |
  \\      /  F ield         | OpenFOAM: The Open Source CFD Toolbox
   \\    /   O peration     | Website:  https://openfoam.org
    \\  /    A nd           | Version:  9
     \\/     M anipulation  |
\*---------------------------------------------------------------------------*/
FoamFile
{
    format      ascii;
    class       volScalarField;
    location    "0.1";
    object      gradTx;
}
// * * * * * * * * * * * * * * * * * * * * * * * * * * * * * * * * * * * * * //

dimensions      [0 -1 0 1 0 0 0];

internalField   nonuniform List<scalar> 
200000
(
4891.91
2168.02
1248.5
846.762
633.392
505.163
422.462
367.204
329.936
305.179
289.496
280.581
276.799
276.936
280.049
285.377
292.29
300.249
308.783
317.475
325.949
333.864
340.909
346.801
351.284
354.125
355.119
354.088
350.881
345.377
337.485
327.147
314.338
299.066
281.376
261.346
239.087
214.744
188.494
160.542
131.119
100.479
68.8963
36.6586
4.0652
-28.5789
-60.9678
-92.7991
-123.779
-153.627
-182.079
-208.893
-233.852
-256.765
-277.472
-295.845
-311.788
-325.238
-336.166
-344.575
-350.499
-354
-355.168
-354.118
-350.985
-345.923
-339.101
-330.699
-320.909
-309.925
-297.947
-285.174
-271.806
-258.039
-244.068
-230.081
-216.267
-202.812
-189.901
-177.725
-166.485
-156.392
-147.683
-140.629
-135.543
-132.809
-132.9
-136.424
-144.174
-157.226
-177.083
-205.93
-247.099
-305.972
-391.918
-522.955
-738.637
-1142.14
-2062.87
-4787.36
9643.61
5386.66
3445.34
2439.32
1858.24
1495.13
1256.53
1095.61
986.56
913.998
868.076
842.119
831.355
832.212
841.907
858.188
879.18
903.276
929.072
955.319
980.893
1004.77
1026.02
1043.8
1057.32
1065.91
1068.93
1065.85
1056.22
1039.68
1015.94
984.845
946.308
900.359
847.128
786.851
719.864
646.603
567.599
483.469
394.91
302.685
207.619
110.58
12.4683
-85.7986
-183.299
-279.123
-372.387
-462.244
-547.901
-628.63
-703.774
-772.761
-835.109
-890.431
-938.439
-978.943
-1011.86
-1037.18
-1055.03
-1065.58
-1069.11
-1065.96
-1056.54
-1041.32
-1020.79
-995.505
-966.039
-932.978
-896.923
-858.474
-818.23
-776.784
-734.718
-692.603
-651.001
-610.472
-571.575
-534.88
-500.985
-470.527
-444.211
-422.84
-407.352
-398.88
-398.83
-408.99
-431.699
-470.106
-528.589
-613.465
-734.249
-906.049
-1154.41
-1525.98
-2114.02
-3125.37
-5070.3
-9329.07
12446.6
7678.78
5230.16
3839.83
2986.69
2433.35
2061.58
1807.56
1634.22
1518.61
1445.66
1404.93
1388.87
1391.75
1409.08
1437.19
1473
1513.89
1557.52
1601.84
1644.97
1685.21
1721.02
1750.97
1773.77
1788.27
1793.43
1788.36
1772.28
1744.6
1704.85
1652.75
1588.16
1511.12
1421.87
1320.79
1208.44
1085.57
953.048
811.92
663.353
508.63
349.132
186.316
21.6913
-143.2
-306.814
-467.621
-624.138
-774.945
-918.711
-1054.21
-1180.34
-1296.15
-1400.82
-1493.7
-1574.31
-1642.32
-1697.6
-1740.15
-1770.15
-1787.9
-1793.87
-1788.63
-1772.86
-1747.34
-1712.92
-1670.52
-1621.09
-1565.63
-1505.14
-1440.62
-1373.08
-1303.52
-1232.9
-1162.19
-1092.33
-1024.24
-958.862
-897.145
-840.079
-788.719
-744.229
-707.927
-681.351
-666.35
-665.205
-680.804
-716.903
-778.517
-872.544
-1008.81
-1201.83
-1474.1
-1862.24
-2429.75
-3294.56
-4693.84
-7148.52
-11919.4
14337.4
9368.33
6663.64
5040.64
4000.38
3304.37
2826.9
2496.35
2269.19
2117.47
2022.3
1970.28
1951.56
1958.54
1985.19
2026.54
2078.4
2137.14
2199.56
2262.78
2324.22
2381.49
2432.43
2475.04
2507.52
2528.23
2535.72
2528.72
2506.16
2467.18
2411.14
2337.61
2246.42
2137.63
2011.56
1868.75
1710
1536.35
1349.05
1149.56
939.541
720.801
495.293
265.076
32.2878
-200.895
-432.284
-659.72
-881.103
-1094.42
-1297.8
-1489.5
-1667.96
-1831.82
-1979.94
-2111.39
-2225.49
-2321.78
-2400.06
-2460.34
-2502.86
-2528.06
-2536.59
-2529.26
-2507.04
-2471.02
-2422.41
-2362.5
-2292.64
-2214.24
-2128.7
-2037.47
-1941.94
-1843.54
-1743.62
-1643.54
-1544.61
-1448.16
-1355.49
-1267.92
-1186.83
-1113.68
-1050.09
-997.851
-959.074
-936.266
-932.503
-951.653
-998.699
-1080.23
-1205.18
-1386.09
-1641.06
-1997.4
-2498.02
-3214.05
-4270.8
-5906.43
-8619.68
-13593.1
15732.7
10671.8
7831.48
6068.45
4903.89
4106.03
3549.23
3159.47
2890.18
2710.48
2598.94
2540.01
2522.01
2535.79
2573.99
2630.48
2700.02
2778.07
2860.57
2943.87
3024.65
3099.87
3166.73
3222.69
3265.38
3292.72
3302.8
3293.98
3264.89
3214.39
3141.65
3046.12
2927.58
2786.11
2622.09
2436.26
2229.66
2003.62
1759.77
1500.03
1226.54
941.671
647.954
348.076
44.8204
-258.975
-560.46
-856.82
-1145.32
-1423.33
-1688.41
-1938.29
-2170.94
-2384.59
-2577.73
-2749.17
-2898
-3023.64
-3125.81
-3204.52
-3260.09
-3293.09
-3304.37
-3294.96
-3266.14
-3219.33
-3156.1
-3078.13
-2987.19
-2885.09
-2773.68
-2654.82
-2530.34
-2402.08
-2271.81
-2141.27
-2012.2
-1886.27
-1765.16
-1650.58
-1544.29
-1448.14
-1364.17
-1294.63
-1242.15
-1209.83
-1201.44
-1221.69
-1276.58
-1373.93
-1524.24
-1741.93
-2047.43
-2470.75
-3057.67
-3881.6
-5067.61
-6847.09
-9698.59
-14765
16829.1
11721.6
8805.78
6957.84
5712.33
4844.37
4230.93
3798.07
3498.22
3299.02
3177.46
3116.52
3103.13
3126.9
3179.33
3253.26
3342.53
3441.69
3545.89
3650.72
3752.16
3846.49
3930.3
4000.45
4054.06
4088.54
4101.54
4091.06
4055.36
3993.06
3903.12
3784.88
3638.02
3462.66
3259.29
3028.8
2772.48
2491.99
2189.35
1866.93
1527.4
1173.69
808.958
436.529
59.8641
-317.512
-692.058
-1060.28
-1418.76
-1764.26
-2093.72
-2404.33
-2693.56
-2959.19
-3199.38
-3412.61
-3597.77
-3754.12
-3881.31
-3979.36
-4048.65
-4089.9
-4104.14
-4092.68
-4057.08
-3999.11
-3920.72
-3824
-3711.14
-3584.38
-3446.03
-3298.38
-3143.72
-2984.31
-2822.34
-2659.98
-2499.35
-2342.51
-2191.53
-2048.49
-1915.5
-1794.83
-1688.87
-1600.34
-1532.32
-1488.42
-1473.02
-1491.5
-1550.68
-1659.31
-1828.98
-2075.32
-2420.11
-2894.59
-3545.41
-4445.69
-5717.83
-7586.17
-10515.8
-15630.3
17733
12600
9640.73
7741.12
6443.89
5529.53
4877.82
4415.91
4096.19
3885.7
3760.57
3702.77
3698.2
3735.49
3805.18
3899.2
4010.54
4132.94
4260.76
4388.86
4512.52
4627.36
4729.34
4814.73
4880.1
4922.34
4938.69
4926.71
4884.33
4809.9
4702.16
4560.3
4383.97
4173.29
3928.85
3651.71
3343.42
3005.98
2641.83
2253.8
1845.11
1419.29
980.131
531.65
78.008
-376.547
-827.75
-1271.38
-1703.34
-2119.71
-2516.8
-2891.22
-3239.92
-3560.23
-3849.9
-4107.12
-4330.54
-4519.27
-4672.86
-4791.35
-4875.19
-4925.23
-4942.72
-4929.23
-4886.63
-4817.06
-4722.86
-4606.54
-4470.73
-4318.16
-4151.57
-3973.74
-3787.4
-3595.27
-3399.99
-3204.14
-3010.25
-2820.79
-2638.21
-2464.94
-2303.48
-2156.45
-2026.64
-1917.13
-1831.42
-1773.59
-1748.5
-1762.09
-1821.76
-1936.96
-2119.97
-2387.17
-2760.94
-3272.92
-3969.59
-4922.82
-6252.07
-8176.22
-11152.1
-16293.4
18508.1
13360.7
10376.1
8445.49
7116.35
6172.96
5497.48
5018.29
4688.19
4474.09
4351.63
4302.13
4310.74
4365.29
4455.53
4572.57
4708.62
4856.65
5010.28
5163.65
5311.34
5448.31
5569.87
5671.7
5749.81
5800.58
5820.74
5807.46
5758.33
5671.37
5545.13
5378.64
5171.49
4923.81
4636.28
4310.18
3947.3
3550
3121.15
2664.09
2182.6
1680.84
1163.28
634.646
99.8561
-436.087
-968.152
-1491.36
-2000.88
-2492.08
-2960.6
-3402.44
-3814
-4192.12
-4534.15
-4837.94
-5101.89
-5324.93
-5506.55
-5646.77
-5746.12
-5805.6
-5826.66
-5811.17
-5761.32
-5679.63
-5568.86
-5431.96
-5272.04
-5092.29
-4895.96
-4686.3
-4466.54
-4239.87
-4009.38
-3778.1
-3548.98
-3324.9
-3108.69
-2903.16
-2711.18
-2535.71
-2379.89
-2247.17
-2141.4
-2067.06
-2029.41
-2034.8
-2091.1
-2208.2
-2398.82
-2679.69
-3073.43
-3611.56
-4339.95
-5329.1
-6695.92
-8655.46
-11659.6
-16816.8
19195.8
14040.4
11041.5
9093.03
7745.62
6785.97
6098.04
5611.3
5279.06
5068.29
4954.4
4918.25
4944.44
5020.13
5134.37
5277.57
5441.2
5617.49
5799.36
5980.23
6153.97
6314.89
6457.64
6577.29
6669.26
6729.38
6753.92
6739.59
6683.6
6583.69
6438.15
6245.88
6006.37
5719.78
5386.91
5009.2
4588.76
4128.29
3631.13
3101.14
2542.7
1960.64
1360.15
746.715
126.028
-496.096
-1113.81
-1721.35
-2313.07
-2883.6
-3427.89
-3941.28
-4419.56
-4859.09
-5256.75
-5610.04
-5917.1
-6176.69
-6388.19
-6551.61
-6667.57
-6737.23
-6762.26
-6744.8
-6687.43
-6593.04
-6464.83
-6306.24
-6120.85
-5912.38
-5684.59
-5441.24
-5186.09
-4922.79
-4654.95
-4386.04
-4119.45
-3858.49
-3606.37
-3366.29
-3141.48
-2935.23
-2751.02
-2592.64
-2464.25
-2370.66
-2317.44
-2311.29
-2360.38
-2474.9
-2667.8
-2955.95
-3361.94
-3916.97
-4666.21
-5678.87
-7069.94
-9051.84
-12073.4
-17240.2
19824.6
14665
11658.8
9701.44
8345.38
7378.97
6687.46
6201.17
5873.87
5672.67
5572.82
5554.89
5603
5703.75
5845.59
6018.25
6212.51
6419.91
6632.65
6843.45
7045.48
7232.36
7398.08
7537.06
7644.13
7714.55
7744.08
7728.98
7666.05
7552.71
7387
7167.66
6894.11
6566.51
6185.77
5753.54
5272.21
4744.89
4175.39
3568.14
2928.15
2260.94
1572.47
869.033
157.154
-556.494
-1265.21
-1962.35
-2641.47
-3296.38
-3921.27
-4510.8
-5060.13
-5565.05
-6022
-6428.09
-6781.16
-7079.77
-7323.23
-7511.52
-7645.34
-7726
-7755.42
-7736.06
-7670.85
-7563.12
-7416.52
-7235
-7022.66
-6783.75
-6522.59
-6243.49
-5950.73
-5648.5
-5340.9
-5031.91
-4725.38
-4425.02
-4134.47
-3857.32
-3597.13
-3357.56
-3142.39
-2955.71
-2801.98
-2686.26
-2614.42
-2593.38
-2631.54
-2739.25
-2929.58
-3219.4
-3631.13
-4195.61
-4957.31
-5984.41
-7390.44
-9386.07
-12418.2
-17590.8
20415
15253.8
12244.9
10284.9
8927.16
7961.19
7273.12
6793.89
6477.63
6291.56
6210.85
6215.76
6290.04
6419.79
6592.87
6798.42
7026.52
7268.04
7514.47
7757.82
7990.55
8205.56
8396.18
8556.16
8679.69
8761.46
8796.67
8781.1
8711.14
8583.87
8397.06
8149.26
7839.82
7468.91
7037.55
6547.6
6001.77
5403.59
4757.36
4068.1
3341.5
2583.84
1801.87
1002.75
193.878
-617.149
-1422.71
-2215.27
-2987.46
-3732.28
-4443.09
-5113.8
-5738.92
-6313.64
-6833.89
-7296.38
-7698.64
-8039.03
-8316.72
-8531.7
-8684.74
-8777.33
-8811.64
-8790.45
-8717.08
-8595.3
-8429.28
-8223.47
-7982.55
-7711.34
-7414.72
-7097.59
-6764.81
-6421.13
-6071.17
-5719.43
-5370.22
-5027.73
-4696.01
-4379.04
-4080.75
-3805.11
-3556.23
-3338.46
-3156.55
-3015.78
-2922.22
-2882.99
-2906.63
-3003.6
-3186.98
-3473.58
-3885.6
-4453.5
-5221.16
-6255.94
-7670.34
-9673.8
-12712.1
-17888
20982.1
15821.2
12813
10854.7
9500.54
8540.6
7861.63
7394.99
7095.06
6929.12
6872.21
6904.37
7008.95
7171.61
7379.64
7621.57
7886.84
8165.64
8448.74
8727.41
8993.4
9238.89
9456.48
9639.24
9780.71
9874.95
9916.59
9900.9
9823.84
9682.1
9473.18
9195.45
8848.15
8431.47
7946.54
7395.45
6781.24
6107.87
5380.16
4603.79
3785.16
2931.33
2049.91
1148.96
236.848
-677.875
-1586.61
-2480.83
-3352.26
-4192.94
-4995.4
-5752.75
-6458.79
-7108.06
-7695.97
-8218.77
-8673.67
-9058.8
-9373.21
-9616.87
-9790.63
-9896.15
-9935.89
-9912.95
-9831.07
-9694.51
-9507.95
-9276.41
-9005.15
-8699.61
-8365.3
-8007.71
-7632.32
-7244.46
-6849.33
-6451.94
-6057.15
-5669.59
-5293.76
-4934.04
-4594.72
-4280.12
-3994.63
-3742.88
-3529.85
-3361.03
-3242.67
-3182.03
-3187.75
-3270.32
-3442.81
-3721.92
-4129.62
-4696.05
-5464.59
-6501.95
-7919.87
-9926.99
-12968.2
-18145.9
21537.7
16378.2
13373.1
11420
10073.4
9123.95
8458.72
8009.37
7730.4
7589.08
7560.33
7623.91
7762.82
7962.24
8208.93
8490.81
8796.68
9116.01
9438.86
9755.77
10057.7
10336.2
10582.9
10790.4
10951.4
11059.3
11108.1
11092.7
11008.5
10851.7
10619.7
10310.5
9923.22
9458.17
8916.55
8300.7
7613.98
6860.83
6046.64
5177.74
4261.3
3305.22
2318.02
1308.72
286.713
-738.43
-1757.06
-2759.63
-3736.82
-4679.73
-5579.97
-6429.78
-7222.2
-7951.11
-8611.3
-9198.6
-9709.83
-10142.9
-10496.7
-10771.1
-10967.2
-11086.8
-11132.5
-11107.9
-11017.2
-10865.1
-10656.8
-10398
-10094.5
-9752.54
-9378.14
-8977.51
-8556.75
-8121.82
-7678.53
-7232.46
-6788.98
-6353.24
-5930.2
-5524.63
-5141.22
-4784.6
-4459.49
-4170.76
-3923.62
-3723.74
-3577.52
-3492.33
-3476.88
-3541.67
-3699.72
-3967.6
-4367.09
-4928.02
-5693.37
-6729.37
-8147.21
-10154.9
-13196.9
-18375.1
22090.3
16933.3
13933.2
11987.9
10652.1
9716.8
9069.24
8641.23
8387.32
8274.72
8278.17
8377.15
8554.28
8794.26
9083.31
9408.74
9758.68
10121.9
10487.7
10845.9
11186.6
11500.6
11778.8
12012.9
12195.1
12318
12375
12360.2
12268.8
12096.5
11840.2
11497.8
11068.5
10552.4
9950.84
9266.43
8502.91
7665.18
6759.24
5792.14
4771.83
3707.12
2607.5
1483.02
344.116
-798.512
-1934.11
-3052.03
-4141.89
-5193.72
-6198.17
-7146.58
-8031.14
-8845.03
-9582.42
-10238.6
-10810.1
-11294.4
-11690.4
-11997.9
-12218
-12352.8
-12405.1
-12379
-12279.1
-12110.6
-11879.4
-11591.7
-11254.2
-10873.5
-10456.5
-10010.1
-9541.09
-9056.07
-8561.48
-8063.52
-7568.12
-7080.94
-6607.43
-6152.79
-5722.09
-5320.33
-4952.49
-4623.71
-4339.42
-4105.46
-3928.36
-3815.58
-3775.87
-3819.73
-3960.12
-4213.48
-4601.41
-5153.48
-5912.36
-6943.89
-8358.85
-10364.9
-13406
-18583.7
22646.8
17493
14499.4
12564
11241.8
10323.6
9697.11
9294.01
9068.86
8988.74
9028.18
9166.36
9385.47
9669.74
10004.8
10377.4
10775
11185.5
11597.5
12000
12382.4
12734.6
13046.7
13309.6
13514.6
13653.8
13719.8
13706.3
13607.5
13419.1
13137.5
12760.5
12286.8
11716.9
11052
10295.1
9450.37
8523.11
7520
6448.81
5318.38
4138.44
2919.51
1672.73
409.687
-857.761
-2117.68
-3358.24
-4567.91
-5735.63
-6850.99
-7904.37
-8887.09
-9791.53
-10611.2
-11340.9
-11976.7
-12515.8
-12956.9
-13299.9
-13545.8
-13697
-13756.7
-13729.2
-13619.7
-13434.1
-13178.7
-12860.5
-12486.8
-12065.1
-11602.9
-11108
-10587.7
-10049.5
-9500.34
-8947.17
-8396.49
-7854.51
-7327.17
-6820.14
-6338.88
-5888.73
-5475
-5103.07
-4778.57
-4507.52
-4296.58
-4153.26
-4086.36
-4106.35
-4226.13
-4462.04
-4835.51
-5375.88
-6125.55
-7150.11
-8559.98
-10562.5
-13601.5
-18778.2
23212.2
18062.3
15076.5
13152.8
11846.3
10948
10345.4
9970.42
9777.38
9733.22
9812.22
9993.21
10257.9
10590.2
10974.9
11398.3
11846.9
12308.1
12769.7
13219.7
13646.8
14039.8
14388.3
14682.1
14911.8
15068.7
15144.7
15132.8
15026.9
14821.8
14513.8
14100.4
13580.2
12953.5
12222
11388.7
10458.1
9436.3
8330.46
7149.19
5902.22
4600.29
3255
1878.65
484.032
-915.757
-2307.53
-3678.21
-5015.05
-6305.81
-7538.97
-8703.89
-9790.94
-10791.7
-11699
-12506.9
-13211.2
-13808.7
-14297.9
-14678.8
-14952.4
-15121.3
-15189.1
-15160.4
-15041.1
-14837.4
-14556.5
-14206.2
-13794.3
-13329.3
-12819.3
-12272.9
-11698.3
-11103.7
-10496.7
-9884.91
-9275.52
-8675.3
-8090.7
-7527.88
-6992.72
-6490.91
-6028.08
-5609.88
-5242.13
-4931.02
-4683.31
-4506.61
-4409.71
-4403.09
-4499.57
-4715.39
-5071.83
-5598.04
-6336.23
-7351.73
-8754.73
-10752.4
-13788.2
-18963.4
23790.4
18644.8
15667.8
13757.3
12468.5
11592.4
11016.4
10672.4
10514.5
10509.6
10631.5
10858.8
11172.6
11556.4
11994.4
12472
12975.3
13490.6
14005
14505.8
14980.4
15417.1
15804.4
16131.4
16387.6
16563.6
16650.7
16641
16527.8
16305.6
15970.1
15518.7
14949.7
14263.6
13462
12548.2
11527.3
10405.8
9191.64
7894.23
6524.25
5093.5
3614.73
2101.44
567.724
-972.026
-2503.29
-4011.69
-5483.15
-6904.22
-8262.19
-9545.31
-10743
-11845.9
-12846.1
-13737.1
-14514.2
-15173.8
-15714.4
-16135.6
-16438.9
-16626.8
-16703.4
-16673.8
-16544.2
-16321.7
-16014.2
-15630
-15177.9
-14667.1
-14106.7
-13506
-12874
-12219.6
-11551.4
-10877.6
-10206
-9544.08
-8898.78
-8276.75
-7684.32
-7127.57
-6612.44
-6144.85
-5730.82
-5376.73
-5089.42
-4876.58
-4747.03
-4711.21
-4781.9
-4975.23
-5312.36
-5822.28
-6547.01
-7551.7
-8946.34
-10937.9
-13969.7
-19143
24383.7
19243
16275.7
14379.8
13110.4
12258.5
11711.5
11401.1
11281.3
11318.5
11486.6
11763.4
12129.8
12568.4
13063.2
13598.6
14159.9
14732.8
15303.4
15857.9
16383.2
16866.4
17295
17657.2
17941.9
18138.5
18237.6
18230.7
18110.3
17870.5
17506.6
17015.5
16395.7
15647.3
14772.2
13774.1
12658.3
11432.1
10104
8684.41
7184.97
5618.59
3999.21
2341.64
661.293
-1026.04
-2704.46
-4358.16
-5971.74
-7530.4
-9020.2
-10428.2
-11742.8
-12953.8
-14052.3
-15031.3
-15885.5
-16611
-17206
-17670.2
-18005.1
-18213.4
-18299.6
-18269.2
-18129.2
-17887.1
-17551.6
-17131.9
-16637.6
-16078.7
-15465.2
-14807.2
-14114.8
-13397.5
-12664.7
-11925.5
-11188.2
-10461.1
-9751.62
-9066.98
-8413.94
-7798.99
-7228.38
-6708.32
-6245.06
-5845.11
-5515.46
-5263.84
-5099.09
-5031.65
-5074.24
-5242.9
-5558.65
-6050.39
-6759.95
-7752.31
-9137.34
-11121.8
-14149
-19319.9
24993.9
19858.4
16901.7
15021.5
13773
12947.2
12431.4
12156.9
12077.8
12160.1
12377.2
12706.7
13128.9
13625.8
14180.6
14777.2
15399.9
16033.7
16663.7
17275.2
17854
18386.3
18858.8
19258.6
19573.5
19792.2
19904.4
19900.8
19773.5
19515.7
19122.4
18590.1
17917.3
17103.9
16152
15065.7
13850.7
12514.7
11067.3
9519.66
7884.43
6175.7
4408.72
2599.61
765.21
-1077.24
-2910.35
-4716.88
-6479.97
-8183.44
-9812.03
-11351.6
-12789.4
-14114.3
-15316.5
-16388.4
-17323.9
-18119.1
-18771.7
-19281.4
-19649.8
-19879.9
-19976.6
-19945.8
-19795
-19532.6
-19168
-18711.1
-18172.6
-17563.2
-16894.1
-16176.1
-15420.1
-14636.7
-13836.1
-13028
-12221.7
-11425.9
-10648.9
-9898.27
-9181.33
-8504.96
-7875.78
-7300.24
-6784.85
-6336.28
-5961.63
-5668.7
-5466.36
-5365.02
-5377.36
-5519.33
-5811.87
-6283.71
-6976.58
-7955.31
-9329.63
-11306.2
-14328.2
-19496.5
25621.6
20491.7
17546.2
15682.8
14456.7
13658.7
13175.9
12939.7
12903.6
13033.7
13302.6
13687.8
14168.8
14727.1
15345.2
16006.1
16693.6
17391.4
18083.9
18755.4
19390.7
19974.9
20493.6
20933
21280.1
21522.4
21648.8
21649.3
21515
21238.9
20815.3
20240.5
19512.6
18631.7
17600
16421.8
15103.2
13652.8
12080.8
10399.3
8622.16
6764.61
4843.22
2875.54
879.877
-1125
-3120.17
-5086.84
-7006.66
-8861.98
-10636.2
-12313.8
-13881
-15325.4
-16636.6
-17806.1
-18827.3
-19695.8
-20409.1
-20967
-21370.9
-21624.2
-21732.1
-21701.1
-21539.4
-21256
-20861.1
-20365.6
-19781
-19119
-18391.6
-17610.8
-16788.3
-15935.7
-15064.1
-14183.9
-13305.2
-12437.5
-11589.6
-10769.7
-9985.71
-9244.82
-8554.04
-7920.14
-7349.84
-6849.98
-6427.8
-6091.17
-5848.96
-5711.6
-5691.7
-5805.15
-6072.77
-6523.19
-7198.02
-8161.95
-9524.6
-11492.5
-14508.8
-19674.3
26266.7
21142.8
18209.1
16363.5
15161
14392.2
13944.3
13748.3
13757.6
13937.7
14261.2
14704.7
15247.4
15870.1
16554.5
17282.9
18038.1
18803.1
19561.1
20295.5
20990
21628.7
22196.1
22677.3
23058.2
23325.6
23467.4
23472.5
23331.6
23036.9
22582.3
21963.6
21178.9
20228.1
19113.6
17839.9
16413.9
14844.5
13142.9
11322.1
9397.23
7384.67
5302.4
3169.43
1005.61
-1168.7
-3332.97
-5466.8
-7550.27
-9564.21
-11490.5
-13312.5
-15014.9
-16584.5
-18009.8
-19281.4
-20392.4
-21337.8
-22114.9
-22723.4
-23164.7
-23442.7
-23562.7
-23531.9
-23359.1
-23054.1
-22627.9
-22092.3
-21459.7
-20743
-19955
-19108.8
-18217.1
-17292.3
-16346.5
-15391.1
-14436.9
-13494.1
-12572.1
-11679.9
-10825.8
-10017.4
-9262.13
-8567.1
-7939.24
-7385.59
-6913.49
-6530.89
-6246.71
-6071.34
-6017.37
-6100.59
-6341.76
-6769.39
-7424.97
-8373.08
-9723.23
-11681.9
-14692
-19854.4
26928.4
21810.8
18889.5
17062.5
15884.6
15146.6
14735.1
14581.1
14637.8
14870.2
15250.6
15754.9
16362
17051.8
17805.3
18604.1
19430
20265
21091.3
21891.3
22647.7
23343.3
23961.6
24486.7
24903.3
25197.2
25355.3
25365.9
25218.6
24905.1
24418.8
23755.2
22911.9
21889.1
20689.1
19316.8
17779.6
16087.1
14251.3
12286.2
10208.1
8034.82
5785.61
3481.07
1142.64
-1207.67
-3547.65
-5855.25
-8108.89
-10287.8
-12372.5
-14344.6
-16188
-17887.9
-19432.1
-20810.4
-22015
-23040.8
-23884.6
-24546
-25026.7
-25330.6
-25463.6
-25433.4
-25249.4
-24922.2
-24463.8
-23886.8
-23204.7
-22431.2
-21580.4
-20666.4
-19702.8
-18703.1
-17680.4
-16646.8
-15614.1
-14593.1
-13594.2
-12626.7
-11699.5
-10820.9
-9998.48
-9239.74
-8551.86
-7942.06
-7417.82
-6987.17
-6659.05
-6443.86
-6354.13
-6405.6
-6618.93
-7022.53
-7657.78
-8589.16
-9926.06
-11874.8
-14878.5
-20037.7
27605.3
22494.1
19585.8
17778.2
16626
15919.7
15546.1
15435.8
15541.6
15828.4
16267.7
16835.3
17509
18268.5
19093.7
19965.5
20864.7
21772.3
22669.6
23537.8
24358.4
25113.2
25784.6
26355.4
26809.4
27131.2
27306.7
27323.4
27170.2
26837.8
26319.3
25609.7
24706.5
23609.7
22321.9
20848.2
19196.5
17377.1
15402.9
13289.1
11052.9
8713.52
6291.87
3810.02
1291.08
-1241.25
-3763.03
-6250.46
-8680.27
-11030.1
-13278.7
-15406.6
-17396
-19231.2
-20898.7
-22387.8
-23689.8
-24799.1
-25712.4
-26429.1
-26950.9
-27282.1
-27428.9
-27399.7
-27204.5
-26854.8
-26363.2
-25743.7
-25010.5
-24178.6
-23263
-22278.9
-21241.1
-20164
-19061.6
-17947.2
-16833.2
-15731.5
-14652.8
-13607.4
-12604.6
-11653.1
-10761.1
-9936.24
-9186.07
-8517.98
-7939.57
-7458.96
-7085.13
-6828.47
-6701.46
-6719.8
-6904.05
-7282.52
-7896.49
-8810.33
-10133.3
-12071.8
-15068.5
-20224.3
28295.3
23190.9
20295.9
18508.2
17382.5
16709.2
16374.7
16309.4
16466
16808.8
17309
17941.7
18684.3
19515.5
20414.8
21361.9
22336.7
23319.4
24289.9
25228.6
26115.7
26931.8
27658.2
28276.6
28769.4
29120.4
29314.5
29338
29179.1
28828
28276.9
27520.7
26556.4
25384.1
24006.4
22428.9
20659.8
18710.3
16594.1
14327.4
11928.8
9418.81
6819.84
4155.61
1450.91
-1268.79
-3977.77
-6650.45
-9261.82
-11787.8
-14205.6
-16494.1
-18634.2
-20609.1
-22404.1
-24007.6
-25410.4
-26606.2
-27591.5
-28365.5
-28930.2
-29289.9
-29451.5
-29423.7
-29217.3
-28844.6
-28319.4
-27656.3
-26870.8
-25978.9
-24996.8
-23940.7
-22826.5
-21669.8
-20485.5
-19287.9
-18090.2
-16905.2
-15744.4
-14618.6
-13537.8
-12511.2
-11547.3
-10654.3
-9839.83
-9111.52
-8477.13
-7944.86
-7523.75
-7224.15
-7058.54
-7042.53
-7196.6
-7548.99
-8140.84
-9036.44
-10345
-12272.7
-15262.3
-20414.5
28995.9
23898.3
21017.1
19249.9
18151.4
17511.8
17217.4
17198.4
17407
17807.3
18369.9
19069.5
19882.7
20787.7
21762.9
22787.3
23839.8
24899.5
25945.4
26956.5
27912
28791.4
29574.5
30241.9
30775.1
31156.6
31370.1
31401.2
31237.1
30867.4
30283.6
29480.2
28454
27204.9
25735.8
24052.5
22163.8
20081.5
17820.2
15397.4
12832.7
10148.2
7367.83
4516.91
1622
-1289.64
-4190.46
-7053.06
-9850.61
-12557.3
-15148.7
-17602.2
-19897.1
-22015.5
-23941.6
-25662.8
-27169.3
-28454.3
-29513.8
-30347.2
-30956.2
-31345.7
-31522.8
-31496.8
-31279.4
-30883.6
-30324.2
-29616.7
-28777.9
-27824.8
-26774.7
-25645
-24452.7
-23214.5
-21946.3
-20663.3
-19380
-18109.5
-16864.5
-15656.3
-14495.5
-13391.8
-12354.3
-11391.2
-10510.6
-9720.47
-9028.55
-8443.16
-7973.39
-7629.61
-7424.25
-7372.85
-7495.82
-7821.29
-8390.33
-9267.1
-10560.7
-12477.3
-15459.5
-20608.1
29704
24613.4
21746.1
19999.9
18929.1
18323.9
18070.4
18098.6
18360.3
18819.2
19445.6
20213.3
21098.7
22078.8
23131.5
24234.9
25366.8
26505.2
27628.1
28713.3
29738.9
30683
31524.3
32242.3
32817.1
33230
33464
33503.4
33334.7
32946.6
32330.2
31479.3
30390.6
29064
27502.4
25711.8
23701.7
21484.6
19076
16494.4
13760.9
10898.9
7933.79
4892.75
1804.06
-1303.2
-4399.62
-7455.91
-10443.4
-13334.6
-16103.2
-18725.2
-21178.4
-23443.5
-25503.7
-27345.5
-28958.2
-30334.6
-31470.4
-32364.7
-33019.5
-33439.8
-33633.1
-33609.6
-33381.3
-32962.4
-32368.4
-31616.1
-30723.1
-29707.8
-28588.6
-27384
-26112.2
-24791
-23437.3
-22067.5
-20696.7
-19339.2
-18008.3
-16716
-15473.5
-14291.2
-13178.3
-12143.7
-11195.7
-10342.2
-9591.5
-8951.8
-8432.27
-8043.27
-7797.2
-7709.56
-7800.67
-8098.56
-8644.2
-9501.66
-10779.9
-12685.1
-15659.8
-20804.6
30415.9
25332.5
22479.4
20754.3
19711.7
19141.4
18929.4
19005.4
19321
19839.3
20530.3
21367.3
22325.8
23382.2
24513.6
25697.1
26909.6
28128.1
29329.3
30489.9
31586.8
32596.9
33497.7
34267.3
34884.7
35330.2
35585.4
35633.9
35461.2
35055.1
34406.2
33507.9
32356.6
30952.1
29297.3
27398.6
25266.1
22912.9
20355.4
17613.4
14709.1
11667.4
8515.3
5281.69
1996.64
-1308.92
-4603.68
-7856.48
-11036.8
-14115.2
-17063.9
-19857.1
-22471.2
-24885.5
-27082.2
-29046.7
-30767.7
-32237.3
-33451
-34407.6
-35109.4
-35561.5
-35771.8
-35751.1
-35512.3
-35070.3
-34441.7
-33644.2
-32696.7
-31618.6
-30429.5
-29149.1
-27796.8
-26391.5
-24951.3
-23493.3
-22033.9
-20588.1
-19170
-17792.4
-16467.1
-15204.8
-14015.4
-12908.2
-11891.6
-10973.9
-10163.3
-9468.42
-8898.26
-8463.26
-8175.78
-8051.24
-8109.9
-8379.7
-8901.5
-9739.27
-11001.9
-12895.5
-15862.4
-21003.3
31128
26051.7
23212.9
21509.2
20494.9
19959.8
19789.6
19913.8
20283.6
20862
21618.1
22524.8
23557.1
24690.5
25901.3
27165.7
28459.6
29759
31039.3
32276.3
33445.4
34522.4
35483.5
36305.6
36966.6
37445.4
37722.7
37780.9
37604.7
37181.2
36500.4
35555
34341.3
32858.9
31110.8
29103.9
26848.6
24358.7
21651.8
18748.5
15672.4
12449.9
9109.59
5682.05
2199.14
-1306.3
-4801.06
-8252.09
-11627
-14894.5
-18025
-20991.1
-23767.9
-26333.1
-28668
-30756.8
-32587.5
-34151.7
-35444.5
-36464.6
-37214.3
-37698.9
-37927
-37909.7
-37660.7
-37195.9
-36532.7
-35690
-34687.8
-33546.6
-32287.3
-30930.7
-29497.4
-28007.4
-26479.9
-24933.2
-23384.4
-21849.6
-20343.5
-18879.8
-17470.8
-16127.8
-14861.3
-13680.6
-12594.7
-11612.1
-10741.1
-9990.36
-9369.02
-8887.49
-8558.11
-8396.24
-8422.06
-8663.42
-9161.08
-9978.92
-11225.8
-13107.5
-16066.6
-21203.7
31835.9
26766.7
23942.3
22260
21274
20774.1
20645.8
20818.3
21242.5
21880.9
22702.2
23678.9
24785.1
25995.8
27286.2
28631.8
30007.4
31388
32747.9
34061.6
35303.4
36447.8
37469.8
38345.1
39050.2
39562.9
39862.9
39931.6
39752.7
39312.5
38600.3
37608.5
36333
34773.3
32932.5
30817.8
28440.1
25813.9
22957.7
19893.3
16645.5
13242.2
9713.55
6091.86
2410.81
-1294.9
-4990.15
-8639.96
-12210
-15667.3
-18980.4
-22120.3
-25060.5
-27777.6
-30251.4
-32465.3
-34406.6
-36066.2
-37438.9
-38523.3
-39321.5
-39839.4
-40085.8
-40072.4
-39813.8
-39326.5
-38629.1
-37741.5
-36684.8
-35480.6
-34151.2
-32718.4
-31204
-29629.3
-28014.4
-26378.7
-24740.4
-23116.2
-21522
-19971.9
-18478.9
-17055
-15710.9
-14456.6
-13301.1
-12253.3
-11321.6
-10514.7
-9841.94
-9313.64
-8942.12
-8742.72
-8735.51
-8948.26
-9421.63
-10219.4
-11450.3
-13320.2
-16271.5
-21404.6
32535.1
27473.1
24662.9
23001.8
22044.1
21579.2
21492.6
21713.1
22191.4
22889.5
23775.8
24822.2
26002
27289.6
28659.4
30085.9
31543.1
33004.7
34444.1
35834.4
37149
38360.9
39444
40372.6
41122.2
41669.4
41992.7
42072.4
41891.4
41435.4
40692.7
39655.5
38319.2
36683.3
34751
32529.7
30030.7
27269.5
24265.3
21040.9
17622.6
14039.6
10323.8
6508.94
2630.7
-1274.4
-5169.35
-9017.25
-12781.9
-16428.4
-19923.8
-23237.2
-26340.6
-29209.4
-31822.1
-34161.3
-36213.3
-37968.6
-39421.5
-40570.5
-41417.8
-41969.4
-42234.5
-42225.6
-41957.9
-41448.7
-40717.7
-39785.7
-38675
-37408.5
-36009.4
-34501
-32906.1
-31247
-29545.2
-27820.9
-26093.4
-24380.3
-22698.2
-21061.9
-19485.3
-17980.6
-16559.3
-15231.4
-14006.5
-12893.6
-11901.2
-11038.4
-10314.2
-9739.18
-9325.57
-9088.66
-9048.44
-9232.59
-9681.69
-10459.4
-11674.4
-13532.4
-16475.8
-21605
33220.9
28165.9
25369.8
23729.8
22799.9
22369.6
22324.1
22592.1
23123.8
23881
24831.6
25946.8
27199.4
28563.1
30011.6
31518.2
33056.2
34598.1
36116.3
37582.8
38969.6
40248.7
41392.7
42374.6
43168.8
43750.6
44097.6
44189
44006.8
43535.7
42763.8
41682.4
40286.9
38576.4
36554.3
34228.3
31610.2
28716.1
25566.1
22184
18597.6
14837.2
10936.5
6930.87
2857.73
-1244.56
-5337.08
-9381.05
-13338.4
-17172.5
-20848.4
-24333.8
-27599.3
-30618.7
-33369.5
-35833.2
-37995.4
-39846
-41378.9
-42592.5
-43488.9
-44074.5
-44358.9
-44355
-44078.7
-43548.5
-42784.6
-41809.2
-40645.5
-39317.6
-37849.8
-36266.7
-34592.3
-32849.9
-31062.2
-29250.4
-27434.6
-25633.5
-23864.4
-22142.9
-20483.3
-18898.7
-17400.7
-16000
-14706.3
-13528.8
-12476.4
-11557.9
-10782.8
-10161.4
-9706.04
-9431.9
-9358.92
-9514.69
-9939.68
-10697.5
-11896.7
-13742.9
-16678.5
-21803.8
33888.5
28840.4
26058.1
24438.6
23536.1
23139.7
23134.6
23449.1
24033.2
24848.4
25862
27044.8
28369
29807.4
31333.1
32918.5
34535.9
36156.9
37752.8
39294.3
40752.4
42097.9
43302.1
44336.9
45175.4
45792
46162.9
46266.5
46083.8
45598.9
44799
43675.1
42222.2
40439.4
38330
35902
33167.6
30143.7
26851.1
23314.9
19563.8
15629.7
11547.7
7355.02
3090.62
-1205.25
-5491.83
-9728.48
-13875.3
-17893.8
-21747.5
-25402.3
-28827.4
-31995.3
-34882.3
-37469
-39740.1
-41685
-43297.2
-44574.9
-45520.4
-46140
-46443.9
-46445.5
-46161.5
-45611
-44815.4
-43797.7
-42582.3
-41194.4
-39659.6
-38003.4
-36251
-34427
-32554.9
-30657.2
-28754.7
-26867.2
-25012.6
-23207.3
-21466.2
-19802.9
-18229.5
-16757.1
-15395.7
-14154.6
-13043
-12069.9
-11244.5
-10577.5
-10081
-9770.17
-9664.9
-9792.69
-10193.9
-10932.1
-12115.7
-13950.3
-16878.2
-21999.6
34532.9
29491.5
26722.6
25123.1
24247.2
23883.8
23917.9
24277.7
24912.9
25784.4
26859.4
28108
29501.8
31013.2
32614.1
34276.4
35971.4
37669.6
39341.3
40956.3
42484.2
43894.8
45158.2
46245.1
47127.4
47778.4
48173.3
48289.6
48107.3
47609.7
46783.4
45619.1
44111.1
42258.7
40065.1
37538.5
34691.7
31542
28111.2
24425.4
20514.4
16411.6
12153.3
7778.57
3327.98
-1156.44
-5632.15
-10056.7
-14388.4
-18586.9
-22614.2
-26434.6
-30015.8
-33328.9
-36349.3
-39056.5
-41434.5
-43472
-45162.2
-46503.1
-47497.1
-48150.6
-48474.2
-48481.9
-48190.9
-47621.2
-46795.2
-45736.8
-44471.4
-43025.4
-41425.5
-39698.3
-37870.2
-35966.7
-34012.6
-32031.1
-30044.3
-28072.5
-26134.4
-24247.4
-22426.8
-20686.8
-19039.8
-17497.3
-16069.7
-14766.6
-13597.2
-12570.6
-11696.2
-10984.5
-10447.8
-10101.1
-9964.24
-10064.7
-10442.7
-11161.7
-12330
-14153.3
-17073.6
-22191.3
35149.2
30114.3
27358.2
25778
24927.7
24596.1
24668.1
25071.5
25755.9
26681.9
27816.1
29128.2
30589.3
32171
33844.8
35581.4
37351.4
39124.4
40869.7
42555.9
44151.7
45625.6
46946.6
48084.4
49009.6
49694.7
50113.5
50242.8
50061.7
49552.8
48702
47499.4
45939.3
44020.5
41746.4
39125.5
36170.9
32900.5
29337
25507.3
21442.4
17177
12748.9
8198.53
3568.25
-1098.26
-5756.71
-10362.9
-14873.4
-19246.2
-23441.6
-27422.5
-31155
-34609.2
-37759.2
-40583.5
-43065.5
-45193.2
-46959.6
-48362.4
-49404
-50091
-50434.3
-50448.5
-50151.4
-49563.8
-48708.9
-47611.7
-46298.5
-44796.7
-43134.2
-41338.6
-39437.5
-37457.5
-35424.1
-33361.9
-31293.5
-29240.2
-27221.6
-25255.5
-23358
-21543.6
-19825.4
-18215.2
-16723.5
-15360.3
-14134.8
-13056.3
-12134.4
-11379.5
-10803.7
-10422.2
-10254.8
-10328.7
-10684.1
-11384.5
-12538.1
-14350.3
-17263.3
-22377.3
35732.4
30703.6
27959.8
26398.1
25572.2
25271
25379
25824.2
26555.6
27533.5
28724.4
30097.2
31622.8
33271.8
35015.2
36823.1
38665.1
40509.9
42325.8
44080.5
45741.6
47276.5
48653.2
49840.3
50807.3
51525.5
51968.2
52110.7
51931.7
51412.8
50539.5
49301.3
47692.2
45710.9
43360.9
40650.6
37593.8
34208.7
30518.9
26552.2
22340.6
17920.1
13329.9
8611.8
3809.75
-1030.93
-5864.3
-10644.5
-15326.3
-19866.3
-24223
-28358
-32236
-35825.8
-39100.5
-42037.7
-44620
-46834.9
-48675
-50137.9
-51225.8
-51945.7
-52308.6
-52329.8
-52027.6
-51423.5
-50541.5
-49407.6
-48049.1
-46494.3
-44772.2
-42911.5
-40940.8
-38887.6
-36778.6
-34639
-32492.6
-30361.3
-28265.6
-26223.7
-24252.4
-22366.8
-20580.3
-18905
-17351.8
-15930.9
-14651.6
-13523.4
-12555.8
-11759.3
-11146.1
-10731.2
-10534.3