/*--------------------------------*- C++ -*----------------------------------*\
  =========                 |
  \\      /  F ield         | OpenFOAM: The Open Source CFD Toolbox
   \\    /   O peration     | Website:  https://openfoam.org
    \\  /    A nd           | Version:  9
     \\/     M anipulation  |
\*---------------------------------------------------------------------------*/
FoamFile
{
    format      ascii;
    class       volScalarField;
    location    "0.1";
    object      gradTy;
}
// * * * * * * * * * * * * * * * * * * * * * * * * * * * * * * * * * * * * * //

dimensions      [0 -1 0 1 0 0 0];

internalField   nonuniform List<scalar> 
200000
(
4891.91
9643.61
12446.6
14337.4
15732.7
16829.1
17733
18508.1
19195.8
19824.6
20415
20982.1
21537.7
22090.3
22646.8
23212.2
23790.4
24383.7
24993.9
25621.6
26266.7
26928.4
27605.3
28295.3
28995.9
29704
30415.9
31128
31835.9
32535.1
33220.9
33888.5
34532.9
35149.2
35732.4
36277.7
36780.6
37236.6
37641.9
37992.7
38285.9
38518.8
38689.1
38795.3
38836.3
38811.8
38721.9
38567.5
38350
38071.4
37734.1
37341.4
36896.6
36403.8
35867.1
35291.2
34680.8
34041
33376.6
32692.9
31994.9
31287.4
30575.3
29863.1
29155.2
28455.6
27768
27095.7
26441.8
25808.8
25198.9
24613.9
24055.2
23523.9
23020.4
22545.1
22097.7
21677.8
21284.4
20916.3
20571.8
20248.9
19944.9
19657
19381.4
19114.1
18849.8
18582.3
18304.3
18006.5
17677
17300.8
16857.6
16319.4
15645.6
14773.1
13596.7
11920.5
9329.15
4787.29
2168.02
5386.66
7678.78
9368.33
10671.8
11721.6
12600
13360.7
14040.4
14665
15253.8
15821.2
16378.2
16933.3
17493
18062.3
18644.8
19243
19858.4
20491.7
21142.8
21810.8
22494.1
23190.9
23898.3
24613.4
25332.5
26051.7
26766.7
27473.1
28165.9
28840.4
29491.5
30114.3
30703.6
31254.8
31763
32224.1
32633.9
32988.7
33285.2
33520.9
33693.4
33801.1
33843.1
33818.8
33728.4
33572.9
33353.6
33072.6
32732.3
32335.9
31887
31389.4
30847.6
30266.1
29649.7
29003.6
28332.7
27642.1
26937.1
26222.5
25503.2
24783.8
24068.7
23361.9
22667.3
21988.1
21327.4
20687.9
20071.7
19480.7
18916.3
18379.4
17870.8
17390.6
16938.7
16514.5
16117.3
15745.6
15397.8
15072
14765.5
14475.4
14198.2
13929.6
13664.7
13397.3
13120.3
12824.6
12499
12129.1
11696.1
11174.4
10528
9704.09
8621.21
7148.16
5069.51
2062.51
1248.5
3445.34
5230.16
6663.64
7831.48
8805.78
9640.73
10376.1
11041.5
11658.8
12244.9
12813
13373.1
13933.2
14499.4
15076.5
15667.8
16275.7
16901.7
17546.2
18209.1
18889.5
19585.8
20295.9
21017.1
21746.1
22479.4
23212.9
23942.3
24662.9
25369.8
26058.1
26722.6
27358.2
27959.8
28522.6
29041.7
29512.7
29931.5
30294.2
30597.6
30838.8
31015.7
31126.5
31170.2
31146.3
31055.1
30897.3
30674.5
30388.6
30042.3
29638.7
29181.4
28674.5
28122.4
27529.7
26901.4
26242.7
25558.6
24854.4
24135.4
23406.6
22672.9
21939.1
21209.6
20488.6
19779.9
19087
18413
17760.4
17131.7
16528.6
15952.7
15404.9
14885.9
14396
13935
13502.4
13097.3
12718.5
12364.3
12032.7
11721.1
11426.8
11146.1
10875.1
10608.7
10341.4
10066.1
9774.38
9455.94
9097.78
8683.32
8190.97
7591.97
6847.36
5903.9
4690.58
3122.84
1141.21
846.762
2439.32
3839.83
5040.64
6068.45
6957.84
7741.12
8445.49
9093.03
9701.44
10284.9
10854.7
11420
11987.9
12564
13152.8
13757.3
14379.8
15021.5
15682.8
16363.5
17062.5
17778.2
18508.2
19249.9
19999.9
20754.3
21509.2
22260
23001.8
23729.8
24438.6
25123.1
25778
26398.1
26978.3
27513.6
27999.5
28431.6
28806.2
29119.8
29369.4
29552.8
29668.2
29714.6
29691.3
29598.8
29437.7
29209.6
28916.5
28561.2
28146.8
27677.1
27156.2
26588.7
25979.3
25333.2
24655.6
23951.9
23227.4
22487.5
21737.5
20982.3
20227
19476
18733.7
18004
17290.5
16596.4
15924.4
15276.9
14655.9
14062.7
13498.6
12964.2
12459.7
11985.1
11539.8
11123
10733.5
10369.6
10029.3
9710.19
9409.37
9123.49
8848.57
8580.01
8312.34
8039.12
7752.66
7443.7
7100.96
6710.58
6255.36
5713.93
5059.94
4262.09
3286.89
2108.84
736.816
633.392
1858.24
2986.69
4000.38
4903.89
5712.33
6443.89
7116.35
7745.62
8345.38
8927.16
9500.54
10073.4
10652.1
11241.8
11846.3
12468.5
13110.4
13773
14456.7
15161
15884.6
16626
17382.5
18151.4
18929.1
19711.7
20494.9
21274
22044.1
22799.9
23536.1
24247.2
24927.7
25572.2
26175.4
26732.2
27237.9
27687.9
28078.2
28405.2
28666
28858.1
28979.7
29029.6
29007.3
28913
28747.5
28512.4
28209.9
27842.6
27413.9
26927.7
26388.3
25800.4
25168.9
24499.2
23796.6
23066.8
22315.4
21547.8
20769.6
19986
19202
18422.5
17652
16894.4
16153.7
15432.9
14735.2
14062.8
13417.8
12801.9
12216.1
11661.1
11137.3
10644.7
10182.6
9750.31
9346.56
8969.74
8617.88
8288.6
7979.09
7686.11
7405.85
7133.95
6865.34
6594.1
6313.36
6015.02
5689.57
5325.78
4910.52
4428.59
3863.13
3196.94
2416.09
1517.2
519.935
505.163
1495.13
2433.35
3304.37
4106.03
4844.37
5529.53
6172.96
6785.97
7378.97
7961.19
8540.6
9123.95
9716.8
10323.6
10948
11592.4
12258.5
12947.2
13658.7
14392.2
15146.6
15919.7
16709.2
17511.8
18323.9
19141.4
19959.8
20774.1
21579.2
22369.6
23139.7
23883.8
24596.1
25271
25902.9
26486.4
27016.6
27488.8
27898.7
28242.6
28517.3
28720.2
28849.4
28903.8
28882.6
28786.2
28615.3
28371.6
28057.3
27675.2
27228.9
26722.3
26159.9
25546.7
24887.8
24188.7
23455.2
22693.1
21908.2
21106.3
20293.1
19474.1
18654.7
17839.9
17034.2
16242.1
15467.5
14713.7
13983.9
13280.7
12606
11961.7
11349
10768.6
10220.8
9705.68
9222.75
8771.16
8349.7
7956.8
7590.51
7248.49
6928.04
6625.99
6338.76
6062.23
5791.71
5521.84
5246.53
4958.81
4650.8
4313.58
3937.29
3511.4
3025.37
2470.17
1840.91
1141.04
387.365
422.462
1256.53
2061.58
2826.9
3549.23
4230.93
4877.82
5497.48
6098.04
6687.46
7273.12
7861.63
8458.72
9069.24
9697.11
10345.4
11016.4
11711.5
12431.4
13175.9
13944.3
14735.1
15546.1
16374.7
17217.4
18070.4
18929.4
19789.6
20645.8
21492.6
22324.1
23134.6
23917.9
24668.1
25379
26045
26660.4
27219.9
27718.4
28151.7
28515.6
28806.9
29022.7
29161.2
29220.9
29201.2
29102.3
28925.1
28671.2
28343
27943.4
27476.1
26945.3
26355.6
25712.3
25020.9
24287
23516.7
22716.2
21891.5
21048.8
20194
19333.1
18471.5
17614.6
16767.3
15934.1
15119.1
14326.1
13558.2
12818.2
12108.3
11430.3
10785.5
10174.7
9598.46
9056.63
8548.82
8074.23
7631.66
7219.56
6835.99
6478.68
6144.97
5831.85
5535.89
5253.21
4979.5
4709.91
4439.08
4161.03
3869.24
3556.66
3215.92
2839.69
2421.39
1956.29
1443.3
887.004
299.529
367.204
1095.61
1807.56
2496.35
3159.47
3798.07
4415.91
5018.29
5611.3
6201.17
6793.89
7394.99
8009.37
8641.23
9294.01
9970.42
10672.4
11401.1
12156.9
12939.7
13748.3
14581.1
15435.8
16309.4
17198.4
18098.6
19005.4
19913.8
20818.3
21713.1
22592.1
23449.1
24277.7
25071.5
25824.2
26529.5
27181.7
27774.9
28304
28764.2
29151.3
29461.8
29692.7
29841.8
29907.7
29889.8
29788.2
29603.8
29338.2
28994
28574.3
28082.9
27524.3
26903.3
26225.4
25496.4
24722.5
23909.9
23065.1
22194.6
21304.8
20402.2
19492.8
18582.6
17677.2
16781.8
15901.3
15039.9
14201.6
13389.8
12607.3
11856.7
11139.8
10458.1
9812.32
9203.1
8630.42
8093.9
7592.73
7125.74
6691.37
6287.74
5912.59
5563.35
5237.08
4930.52
4640.02
4361.58
4090.82
3822.96
3552.88
3275.13
2984.09
2674.14
2340.04
1977.51
1584
1159.65
708.38
238.384
329.936
986.56
1634.22
2269.19
2890.18
3498.22
4096.19
4688.19
5279.06
5873.87
6477.63
7095.06
7730.4
8387.32
9068.86
9777.38
10514.5
11281.3
12077.8
12903.6
13757.6
14637.8
15541.6
16466
17407
18360.3
19321
20283.6
21242.5
22191.4
23123.8
24033.2
24912.9
25755.9
26555.6
27305.3
27998.9
28630.3
29193.8
29684.5
30097.9
30430
30678
30839.2
30912.3
30896.5
30791.9
30599.5
30321
29958.9
29516.7
28998.2
28408.3
27752.1
27035.4
26264.2
25445.2
24585
23690.4
22768.3
21825.6
20869.1
19905.2
18940.3
17980.3
17030.8
16096.8
15183.1
14293.8
13432.5
12602.3
11805.9
11045.2
10321.7
9636.52
8990.16
8382.71
7813.77
7282.59
6787.99
6328.44
5902.04
5506.59
5139.54
4798.04
4478.96
4178.84
3893.95
3620.26
3353.51
3089.21
2822.75
2549.51
2265.05
1965.45
1647.69
1310.14
953.168
579.531
194.528
305.179
913.998
1518.61
2117.47
2710.48
3299.02
3885.7
4474.09
5068.29
5672.67
6291.56
6929.12
7589.08
8274.72
8988.74
9733.22
10509.6
11318.5
12160.1
13033.7
13937.7
14870.2
15828.4
16808.8
17807.3
18819.2
19839.3
20862
21880.9
22889.5
23881
24848.4
25784.4
26681.9
27533.5
28332.5
29071.9
29745.5
30347.2
30871.7
31314.2
31670.5
31937.4
32112.3
32193.4
32180.1
32072.4
31871.2
31578.5
31196.8
30729.8
30181.6
29557.3
28862.3
28102.7
27285.1
26416.4
25503.6
24554
23575.1
22573.9
21557.9
20533.8
19508.5
18488.2
17478.8
16485.9
15514.4
14568.7
13652.7
12769.7
11922.6
11113.4
10343.8
9615.04
8927.61
8281.66
7676.85
7112.42
6587.2
6099.67
5647.94
5229.79
4842.73
4483.96
4150.44
3838.85
3545.66
3267.14
2999.41
2738.44
2480.22
2220.82
1956.56
1684.29
1401.61
1107.22
801.212
485.254
162.549
289.496
868.076
1445.66
2022.3
2598.94
3177.46
3760.57
4351.63
4954.4
5572.82
6210.85
6872.21
7560.33
8278.17
9028.18
9812.22
10631.5
11486.6
12377.2
13302.6
14261.2
15250.6
16267.7
17309
18369.9
19445.6
20530.3
21618.1
22702.2
23775.8
24831.6
25862
26859.4
27816.1
28724.4
29576.8
30366.3
31085.9
31729.3
32290.6
32764.9
33147.7
33435.3
33625.1
33715.2
33704.8
33593.8
33383.4
33075.4
32672.6
32178.8
31598.5
30936.8
30199.8
29393.8
28525.8
27603.2
26633.3
25624.1
24583.4
23518.8
22438.1
21348.6
20257.6
19171.7
18097.4
17040.3
16006
14998.9
14023.5
13083.1
12180.8
11318.9
10499.2
9722.89
8990.74
8302.86
7658.96
7058.29
6499.67
5981.57
5502.08
5059.01
4649.85
4271.83
3921.98
3597.07
3293.73
3008.42
2737.52
2477.35
2224.28
1974.83
1725.79
1474.39
1218.52
956.853
689.083
415.93
139.082
280.581
842.119
1404.93
1970.28
2540.01
3116.52
3702.77
4302.13
4918.25
5554.89
6215.76
6904.37
7623.91
8377.15
9166.36
9993.21
10858.8
11763.4
12706.7
13687.8
14704.7
15754.9
16835.3
17941.7
19069.5
20213.3
21367.3
22524.8
23678.9
24822.2
25946.8
27044.8
28108
29128.2
30097.2
31007.2
31850.3
32619.4
33307.6
33908.7
34417.2
34828.5
35138.6
35344.6
35444.6
35437.5
35323.3
35103.1
34778.9
34353.8
33831.5
33216.9
32515.5
31733.6
30878
29956.2
28975.8
27945
26872
25765.1
24632.5
23482.6
22323.1
21161.7
20005.6
18861.6
17735.9
16634.1
15561.4
14522.1
13520.2
12558.7
11640.2
10766.7
9939.55
9159.39
8426.51
7740.63
7101
6506.44
5955.41
5445.97
4975.91
4542.71
4143.61
3775.64
3435.65
3120.34
2826.31
2550.1
2288.24
2037.36
1794.22
1555.86
1319.7
1083.66
846.271
606.783
365.138
121.906
276.799
831.355
1388.87
1951.56
2522.01
3103.13
3698.2
4310.74
4944.44
5603
6290.04
7008.95
7762.82
8554.28
9385.47
10257.9
11172.6
12129.8
13128.9
14168.8
15247.4
16362
17509
18684.3
19882.7
21098.7
22325.8
23557.1
24785.1
26002
27199.4
28369
29501.8
30589.3
31622.8
32593.6
33493.7
34315.3
35051
35694.4
36239.4
36681
37015.2
37238.6
37349.2
37345.9
37228.6
36998.4
36657.4
36208.8
35656.6
35006
34262.8
33433.6
32525.8
31547.2
30506
29410.8
28270.4
27093.6
25889.3
24666.2
23432.7
22197
20966.7
19748.9
18550.5
17377.5
16235.2
15128.5
14061.3
13037.2
12058.9
11128.5
10247.3
9416.32
8635.75
7905.35
7224.4
6591.69
6005.65
5464.32
4965.44
4506.46
4084.61
3696.89
3340.18
3011.2
2706.62
2423.07
2157.21
1905.77
1665.65
1433.98
1208.22
986.212
766.278
547.236
328.395
109.484
276.936
832.212
1391.75
1958.54
2535.79
3126.9
3735.49
4365.29
5020.13
5703.75
6419.79
7171.61
7962.24
8794.26
9669.74
10590.2
11556.4
12568.4
13625.8
14727.1
15870.1
17051.8
18268.5
19515.5
20787.7
22078.8
23382.2
24690.5
25995.8
27289.6
28563.1
29807.4
31013.2
32171
33271.8
34306.5
35266.3
36142.9
36928.6
37616.3
38199.6
38673.3
39032.9
39274.8
39396.9
39397.8
39277.5
39037.2
38678.9
38206.1
37623
36935.1
36148.4
35270.2
34308
33270.2
32165.7
31003.4
29792.8
28543.2
27264
25964.6
24653.8
23340.4
22032.5
20737.9
19463.6
18216
17001.1
15823.8
14688.5
13599
12558
11568
10630.4
9746.19
8915.69
8138.68
7414.42
6741.7
6118.91
5544.04
5014.78
4528.54
4082.48
3673.58
3298.69
2954.52
2637.76
2345.04
2073.08
1818.63
1578.63
1350.22
1130.78
918.029
710.043
505.254
302.45
100.706
280.049
841.907
1409.08
1985.19
2573.99
3179.33
3805.18
4455.53
5134.37
5845.59
6592.87
7379.64
8208.93
9083.31
10004.8
10974.9
11994.4
13063.2
14180.6
15345.2
16554.5
17805.3
19093.7
20414.8
21762.9
23131.5
24513.6
25901.3
27286.2
28659.4
30011.6
31333.1
32614.1
33844.8
35015.2
36115.9
37137.5
38071.2
38908.6
39642.4
40265.7
40772.8
41158.9
41420.3
41554.5
41560.2
41437.2
41186.8
40811.1
40313.6
39699
38972.8
38141.7
37213
36195
35096.5
33926.7
32695.4
31412.4
30087.8
28731.5
27353.4
25963
24569.5
23181.6
21807.5
20454.8
19130.4
17840.4
16590.2
15384.6
14227.4
13121.8
12070.2
11074.2
10135
9252.81
8427.55
7658.45
6944.28
6283.36
5673.66
5112.78
4598.06
4126.61
3695.35
3301.05
2940.4
2610.02
2306.56
2026.66
1767.1
1524.75
1296.69
1080.19
872.807
672.354
476.924
284.869
94.7468
285.377
858.188
1437.19
2026.54
2630.48
3253.26
3899.2
4572.57
5277.57
6018.25
6798.42
7621.57
8490.81
9408.74
10377.4
11398.3
12472
13598.6
14777.2
16006.1
17282.9
18604.1
19965.5
21361.9
22787.3
24234.9
25697.1
27165.7
28631.8
30085.9
31518.2
32918.5
34276.4
35581.4
36823.1
37991.4
39076.2
40068.3
40958.9
41740
42404.3
42945.9
43359.4
43641.1
43788.1
43799.1
43673.9
43413.5
43020.4
42498.2
41851.8
41087
40210.9
39231.2
38156.5
36996.3
35760.3
34458.8
33102.3
31701.3
30266.5
28808.3
27336.7
25861.6
24392.1
22937.1
21504.5
20101.6
18735
17410.5
16133
14906.8
13735.1
12620.5
11564.9
10569.5
9634.51
8759.92
7944.94
7188.31
6488.33
5842.87
5249.49
4705.43
4207.71
3753.17
3338.51
2960.32
2615.19
2299.65
2010.32
1743.88
1497.13
1267.03
1050.73
845.574
649.14
459.215
273.78
90.972
292.29
879.18
1473
2078.4
2700.02
3342.53
4010.54
4708.62
5441.2
6212.51
7026.52
7886.84
8796.68
9758.68
10775
11846.9
12975.3
14159.9
15399.9
16693.6
18038.1
19430
20864.7
22336.7
23839.8
25366.8
26909.6
28459.6
30007.4
31543.1
33056.2
34535.9
35971.4
37351.4
38665.1
39901.6
41050.4
42101.7
43046.2
43875.3
44581.4
45158
45599.7
45902.2
46062.7
46079.5
45952.4
45682.6
45272.5
44725.9
44047.9
43244.7
42323.5
41292.8
40161.5
38939.4
37637
36265.1
34834.7
33357
31843.3
30304.4
28751.2
27193.9
25642.4
24105.8
22592.7
21110.7
19667
18267.5
16917.6
15621.6
14383.3
13205.2
12089.4
11037.2
10048.9
9124.45
8263.09
7463.52
6723.99
6042.3
5415.91
4842
4317.47
3839.06
3403.38
3006.92
2646.15
2317.54
2017.59
1742.88
1490.09
1256.05
1037.74
832.333
637.158
449.729
267.709
88.8845
300.249
903.276
1513.89
2137.14
2778.07
3441.69
4132.94
4856.65
5617.49
6419.91
7268.04
8165.64
9116.01
10121.9
11185.5
12308.1
13490.6
14732.8
16033.7
17391.4
18803.1
20265
21772.3
23319.4
24899.5
26505.2
28128.1
29759
31388
33004.7
34598.1
36156.9
37669.6
39124.4
40509.9
41814.5
43027.4
44137.9
45136.3
46013.6
46761.7
47373.7
47843.9
48167.7
48342.1
48365.2
48236.9
47958.2
47531.7
46961.3
46252.5
45411.5
44446.1
43365
42177.8
40894.6
39526.6
38084.9
36581.3
35027.6
33435.5
31816.6
30182.3
28543.5
26910.3
25292.7
23699.5
22138.9
20618.3
19144.2
17722.1
16356.8
15052
13810.7
12634.9
11526
10484.6
9510.37
8602.71
7760.26
6981.19
6263.25
5603.8
4999.91
4448.4
3945.88
3488.85
3073.68
2696.73
2354.35
2042.92
1758.89
1498.82
1259.38
1037.39
829.813
633.774
446.531
265.474
88.0859
308.783
929.072
1557.52
2199.56
2860.57
3545.89
4260.76
5010.28
5799.36
6632.65
7514.47
8448.74
9438.86
10487.7
11597.5
12769.7
14005
15303.4
16663.7
18083.9
19561.1
21091.3
22669.6
24289.9
25945.4
27628.1
29329.3
31039.3
32747.9
34444.1
36116.3
37752.8
39341.3
40869.7
42325.8
43697.5
44973.5
46142.5
47194.2
48119.3
48909.1
49556.5
50055.2
50400.5
50589.1
50619.1
50490.1
50203.3
49761.4
49168.4
48429.8
47552.4
46544.2
45414.3
44172.6
42830
41397.9
39888.2
38313.1
36685.1
35016.4
33319.3
31605.6
29886.7
28173.7
26476.5
24804.8
23167
21571
20023.6
18530.7
17097.2
15727.2
14423.7
13188.9
12024.3
10930.5
9907.35
8954.09
8069.38
7251.33
6497.61
5805.5
5171.95
4593.67
4067.17
3588.8
3154.82
2761.47
2404.95
2081.52
1787.49
1519.27
1273.38
1046.46
835.306
636.819
448.038
266.107
88.2517
317.475
955.319
1601.84
2262.78
2943.87
3650.72
4388.86
5163.65
5980.23
6843.45
7757.82
8727.41
9755.77
10845.9
12000
13219.7
14505.8
15857.9
17275.2
18755.4
20295.5
21891.3
23537.8
25228.6
26956.5
28713.3
30489.9
32276.3
34061.6
35834.4
37582.8
39294.3
40956.3
42555.9
44080.5
45517.4
46854.7
48080.6
49184.4
50156.2
50986.9
51669
52195.9
52562.6
52765.7
52803.1
52674.2
52380.4
51924.3
51310.1
50543.6
49631.6
48582.7
47406.2
46112.5
44712.9
43219.4
41644.4
40000.6
38301.1
36558.7
34786.2
32996
31200.1
29409.9
27636
25888.4
24176.1
22507.2
20889
19327.5
17828.1
16394.8
15031.1
13739.2
12520.6
11376
10305.4
9307.91
8382.17
7526.26
6737.76
6013.85
5351.41
4747
4197.02
3697.69
3245.16
2835.5
2464.81
2129.18
1824.81
1547.93
1294.92
1062.25
846.531
644.481
452.932
268.809
89.1131
325.949
980.893
1644.97
2324.22
3024.65
3752.16
4512.52
5311.34
6153.97
7045.48
7990.55
8993.4
10057.7
11186.6
12382.4
13646.8
14980.4
16383.2
17854
19390.7
20990
22647.7
24358.4
26115.7
27912
29738.9
31586.8
33445.4
35303.4
37149
38969.6
40752.4
42484.2
44151.7
45741.6
47240.8
48636.6
49917.1
51070.9
52087.5
52957.8
53673.5
54228
54615.9
54833.5
54878.7
54750.9
54451.2
53982.5
53349
52556.6
51612.7
50525.8
49305.7
47963.3
46510.3
44959
43322.5
41614
39847.1
38035
36191.2
34328.6
32459.7
30596.3
28749.7
26930.1
25147
23408.9
21723.3
20096.7
18534.5
17041.1
15620
14273.7
13003.7
11810.8
10694.9
9655.18
8690.29
7798.21
6976.47
6222.16
5532.03
4902.56
4330.01
3810.48
3339.99
2914.48
2529.9
2182.22
1867.48
1581.77
1321.31
1082.43
861.554
655.229
460.102
272.908
90.445
333.864
1004.77
1685.21
2381.49
3099.87
3846.49
4627.36
5448.31
6314.89
7232.36
8205.56
9238.89
10336.2
11500.6
12734.6
14039.8
15417.1
16866.4
18386.3
19974.9
21628.7
23343.3
25113.2
26931.8
28791.4
30683
32596.9
34522.4
36447.8
38360.9
40248.7
42097.9
43894.8
45625.6
47276.5
48834
50284.9
51616.6
52817.5
53876.7
54784.4
55532.3
56113.3
56521.8
56753.9
56807.2
56681.3
56377.2
55897.7
55247.2
54431.8
53459
52337.6
51077.9
49690.9
48188.9
46584.6
44891.5
43123.3
41294
39417.6
37507.8
35578.2
33641.6
31710.4
29796.1
27909.7
26060.8
24258.3
22510
20822.6
19201.9
17652.5
16177.9
14780.8
13462.8
12224.7
11066.4
9987.26
8985.73
8059.79
7206.9
6424.07
5707.95
5054.92
4461.12
3922.53
3435.04
2994.47
2596.62
2237.34
1912.52
1618.13
1350.23
1105
878.711
667.753
468.605
277.832
92.0566
340.909
1026.02
1721.02
2432.43
3166.73
3930.3
4729.34
5569.87
6457.64
7398.08
8396.18
9456.48
10582.9
11778.8
13046.7
14388.3
15804.4
17295
18858.8
20493.6
22196.1
23961.6
25784.6
27658.2
29574.5
31524.3
33497.7
35483.5
37469.8
39444
41392.7
43302.1
45158.2
46946.6
48653.2
50264
51765.3
53144.2
54388.5
55487
56429.7
57207.7
57813.7
58241.9
58488.2
58550.2
58427.1
58120.1
57631.9
56967.1
56131.9
55134
53982.5
52687.7
51261.3
49715.6
48064
46320.3
44498.6
42613.4
40679.1
38709.9
36719.8
34722
32729.5
30754.1
28807.1
26898.5
25037.6
23232.4
21489.9
19816.1
18215.6
16692.3
15248.9
13887.2
12607.8
11411
10295.8
9260.81
8303.93
7422.55
6613.61
5873.69
5199.04
4585.72
4029.59
3526.41
3071.89
2661.72
2291.6
1957.3
1654.67
1379.63
1128.21
896.562
680.923
477.628
283.091
93.7841
346.801
1043.8
1750.97
2475.04
3222.69
4000.45
4814.73
5671.7
6577.29
7537.06
8556.16
9639.24
10790.4
12012.9
13309.6
14682.1
16131.4
17657.2
19258.6
20933
22677.3
24486.7
26355.4
28276.6
30241.9
32242.3
34267.3
36305.6
38345.1
40372.6
42374.6
44336.9
46245.1
48084.4
49840.3
51498.3
53044.5
54465.5
55748.8
56882.8
57857.1
58662.7
59291.8
59738.6
59998.7
60069.6
59950.3
59642.1
59147.7
58471.8
57620.5
56601.8
55425
54100.7
52640.7
51057.8
49365.6
47578.3
45710.5
43776.9
41792.4
39771.5
37728.7
35677.7
33631.7
31602.8
29602.8
27641.9
25729.7
23874.5
22083.5
20362.9
18717.5
17151.3
15667
14266.6
12950.9
11719.9
10572.8
9508.21
8523.9
7617.25
6785.15
6024.07
5330.2
4699.49
4127.71
3610.51
3143.5
2722.25
2342.35
1999.46
1689.31
1407.69
1150.53
913.849
693.759
486.469
288.264
95.4865
351.284
1057.32
1773.77
2507.52
3265.38
4054.06
4880.1
5749.81
6669.26
7644.13
8679.69
9780.71
10951.4
12195.1
13514.6
14911.8
16387.6
17941.9
19573.5
21280.1
23058.2
24903.3
26809.4
28769.4
30775.1
32817.1
34884.7
36966.6
39050.2
41122.2
43168.8
45175.4
47127.4
49009.6
50807.3
52505.6
54090.2
55547.5
56864.5
58029.4
59031.5
59861.5
60511.5
60975.4
61248.7
61328.6
61214.3
60906.7
60408.8
59725.1
58862
57827.5
56631
55283.3
53796.5
52183.7
50458.7
48635.9
46730.3
44757
42731.1
40667.7
38581.3
36486
34395.4
32322
30277.6
28273
26317.8
24420.7
22588.9
20828.8
19145.6
17543.1
16024.4
14591.3
13244.8
11984.9
10810.8
9720.96
8713.35
7785.21
6933.38
6154.27
5444.01
4798.45
4213.28
3684.08
3206.34
2775.56
2387.23
2036.9
1720.19
1432.83
1170.62
929.471
705.403
494.514
292.982
97.041
354.125
1065.91
1788.27
2528.23
3292.72
4088.54
4922.34
5800.58
6729.38
7714.55
8761.46
9874.95
11059.3
12318
13653.8
15068.7
16563.6
18138.5
19792.2
21522.4
23325.6
25197.2
27131.2
29120.4
31156.6
33230
35330.2
37445.4
39562.9
41669.4
43750.6
45792
47778.4
49694.7
51525.5
53256.1
54871.7
56358.4
57703.1
58893.6
59919.1
60770
61438.2
61917.5
62203
62292.1
62183.7
61878.9
61380.3
60692.7
59822.4
58777.5
57567.5
56203.4
54697.5
53062.9
51313.6
49464.5
47530.6
45527.4
43470.2
41374.2
39254.4
37125.1
35000.1
32892.2
30813.4
28774.7
26785.9
24855.9
22992.2
21201.1
19488
17856.9
16310.9
14852
13481
12198
11002.4
9892.52
8866.3
7920.99
7053.37
6259.82
5536.4
4878.91
4282.98
3744.11
3257.73
2819.24
2424.08
2067.72
1745.69
1453.63
1187.28
942.461
715.105
501.229
296.925
98.3409
355.119
1068.93
1793.43
2535.72
3302.8
4101.54
4938.69
5820.74
6753.92
7744.08
8796.67
9916.59
11108.1
12375
13719.8
15144.7
16650.7
18237.6
19904.4
21648.8
23467.4
25355.3
27306.7
29314.5
31370.1
33464
35585.4
37722.7
39862.9
41992.7
44097.6
46162.9
48173.3
50113.5
51968.2
53722
55360.3
56868.9
58234.5
59444.7
60488.5
61356.2
62039.5
62532
62828.8
62927.1
62825.7
62525.6
62029.5
61342.1
60469.6
59420.3
58203.7
56830.8
55314
53666.6
51902.7
50037.3
48085.6
46063.2
43985.7
41868.4
39726.6
37574.6
35426.5
33295.2
31192.9
29130.9
27119
25166.2
23280.2
21467.5
19733.5
18082.3
16517.1
15039.7
13651.4
12352
11141
10016.8
8977.22
8019.56
7140.57
6336.59
5603.66
4937.53
4333.8
3787.9
3295.23
2851.15
2451.01
2090.24
1764.33
1468.85
1199.47
951.97
722.209
506.147
299.813
99.293
354.088
1065.85
1788.36
2528.72
3293.98
4091.06
4926.71
5807.46
6739.59
7728.98
8781.1
9900.9
11092.7
12360.2
13706.3
15132.8
16641
18230.7
19900.8
21649.3
23472.5
25365.9
27323.4
29338
31401.2
33503.4
35633.9
37780.9
39931.6
42072.4
44189
46266.5
48289.6
50242.8
52110.7
53878.1
55529.9
57052.1
58431
59654.4
60710.9
61590.8
62285.7
62789
63095.9
63203.2
63109.9
62816.7
62326.4
61643.5
60774.3
59727
58511.1
57137.6
55618.9
53968.4
52200.3
50329.5
48371.4
46341.5
44255.7
42129.4
39977.8
37815.5
35656.5
33514
31400.4
29326.6
27303.1
25338.6
23441
21616.9
19871.8
18209.7
16634
15146.6
13748.6
12440.2
11220.5
10088.2
9041.04
8076.33
7190.81
6380.83
5642.4
4971.27
4362.99
3813.02
3316.69
2869.34
2466.31
2102.99
1774.84
1477.39
1206.28
957.256
726.143
508.861
301.403
99.8168
350.881
1056.22
1772.28
2506.16
3264.89
4055.36
4884.33
5758.33
6683.6
7666.05
8711.14
9823.84
11008.5
12268.8
13607.5
15026.9
16527.8
18110.3
19773.5
21515
23331.6
25218.6
27170.2
29179.1
31237.1
33334.7
35461.2
37604.7
39752.7
41891.4
44006.8
46083.8
48107.3
50061.7
51931.7
53701.9
55357.5
56884.1
58268.3
59497.6
60560.7
61447.8
62150.5
62662
62977.4
63093.6
63009.3
62725.3
62244.1
61570.3
60710.2
59671.6
58464.1
57098.8
55587.9
53944.7
52183.4
50318.8
48366.4
46341.8
44260.6
42138.3
39990.1
37830.7
35674.2
33533.6
31421.3
29348.6
27325.6
25361.4
23463.7
21639.2
19893.4
18230.6
16653.9
15165.4
13766.1
12456.4
11235.4
10101.7
9053.23
8087.2
7200.4
6389.2
5649.62
4977.43
4368.17
3817.31
3320.18
2872.13
2468.5
2104.67
1776.09
1478.29
1206.91
957.68
726.414
509.023
301.488
99.8427
345.377
1039.68
1744.6
2467.18
3214.39
3993.06
4809.9
5671.37
6583.69
7552.71
8583.87
9682.1
10851.7
12096.5
13419.1
14821.8
16305.6
17870.5
19515.7
21238.9
23036.9
24905.1
26837.8
28828
30867.4
32946.6
35055.1
37181.2
39312.5
41435.4
43535.7
45598.9
47609.7
49552.8
51412.8
53174.6
54823.3
56344.7
57725.5
58953.1
60016.2
60905.1
61611.3
62128.1
62450.3
62575
62500.7
62228
61759.6
61099.7
60254.4
59231.7
58040.9
56693
55199.9
53574.9
51832
49986.1
48052.2
46046.1
43983.1
41878.7
39748
37605.6
35465.4
33340.6
31243.4
29185.1
27175.7
25224.4
23338.8
21525.7
19790.5
18137.4
16569.8
15089.7
13698.1
12395.4
11180.9
10053
9009.84
8048.6
7166.13
6358.82
5622.74
4953.69
4347.26
3798.92
3304.08
2858.08
2456.31
2094.17
1767.13
1470.75
1200.7
952.701
722.607
506.338
299.89
99.3124
337.485
1015.94
1704.85
2411.14
3141.65
3903.12
4702.16
5545.13
6438.15
7387
8397.06
9473.18
10619.7
11840.2
13137.5
14513.8
15970.1
17506.6
19122.4
20815.3
22582.3
24418.8
26319.3
28276.9
30283.6
32330.2
34406.2
36500.4
38600.3
40692.7
42763.8
44799
46783.4
48702
50539.5
52281
53911.8
55417.8
56785.9
58003.6
59059.8
59944.8
60650
61168.7
61496
61628.7
61565.2
61306.2
60854
60212.8
59388.6
58389.1
57223.4
55902.3
54437.5
52842.1
51129.8
49315.3
47413.5
45439.6
43409
41337
39238.4
37127.7
35018.5
32924
30856.3
28826.4
26844.3
24919.1
23058.4
21268.9
19556
17924
16376
14914.2
13539.8
12252.9
11052.9
9938.5
8907.59
7957.57
7085.31
6287.28
5559.59
4898.11
4298.51
3756.33
3267.01
2825.99
2428.68
2070.57
1747.17
1454.11
1187.08
941.871
714.377
500.562
296.465
98.1776
327.147
984.845
1652.75
2337.61
3046.12
3784.88
4560.3
5378.64
6245.88
7167.66
8149.26
9195.45
10310.5
11497.8
12760.5
14100.4
15518.7
17015.5
18590.1
20240.5
21963.6
23755.2
25609.7
27520.7
29480.2
31479.3
33507.9
35555
37608.5
39655.5
41682.4
43675.1
45619.1
47499.4
49301.3
51010.1
52611.5
54091.6
55437.4
56636.7
57678.7
58553.6
59253
59770.4
60100.7
60240.7
60188.8
59945.6
59513.2
58895.7
58098.8
57129.9
55998
54713.4
53287.7
51733.5
50064.4
48294.4
46438.4
44511.1
42527.7
40502.9
38451.6
36387.6
34324.7
32275.5
30251.9
28264.9
26324.3
24438.9
22616.4
20863.3
19184.9
17585.4
16068.1
14635
13287.3
12025.3
10848.4
9755.25
8743.88
7811.76
6955.83
6172.66
5458.45
4809.17
4220.58
3688.31
3207.91
2774.9
2384.79
2033.16
1715.6
1427.83
1165.62
924.84
701.455
491.505
291.1
96.4006
314.338
946.308
1588.16
2246.42
2927.58
3638.02
4383.97
5171.49
6006.37
6894.11
7839.82
8848.15
9923.22
11068.5
12286.8
13580.2
14949.7
16395.7
17917.3
19512.6
21178.9
22911.9
24706.5
26556.4
28454
30390.6
32356.6
34341.3
36333
38319.2
40286.9
42222.2
44111.1
45939.3
47692.2
49355.7
50915.8
52359
53672.7
54844.9
55865.1
56723.6
57412.3
57924.7
58255.8
58402.3
58362.8
58137.5
57728.4
57139.4
56376
55445.3
54355.8
53117.7
51741.9
50240.8
48627.4
46915.5
45119.2
43253.1
41331.7
39369.5
37380.7
35379.1
33377.7
31389.1
29424.9
27495.6
25610.9
23779.4
22008.6
20304.8
18673.3
17118.3
15642.9
14249.1
12938.2
11710.3
10565.1
9501.29
8516.9
7609.51
6776.2
6013.63
5318.13
4685.78
4112.49
3594
3126
2704.13
2324.04
1981.41
1671.97
1391.54
1136.01
901.352
683.645
479.028
283.711
93.954
299.066
900.359
1511.12
2137.63
2786.11
3462.66
4173.29
4923.81
5719.78
6566.51
7468.91
8431.47
9458.17
10552.4
11716.9
12953.5
14263.6
15647.3
17103.9
18631.7
20228.1
21889.1
23609.7
25384.1
27204.9
29064
30952.1
32858.9
34773.3
36683.3
38576.4
40439.4
42258.7
44020.5
45710.9
47316.3
48823.1
50218.4
51489.8
52626
53616.6
54452.3
55125.2
55628.8
55958.4
56110.6
56083.9
55878.5
55496.1
54940.5
54216.8
53331.7
52293.4
51111.4
49796.5
48360.3
46815.4
45174.9
43452.5
41662.1
39817.7
37933.4
36022.7
34098.9
32174.7
30262.2
28372.5
26515.8
24701.7
22938.2
21232.8
19591.5
18019.5
16520.9
15098.7
13754.9
12490.8
11306.6
10201.9
9175.5
8225.62
7349.91
6545.57
5809.41
5137.91
4527.31
3973.66
3472.89
3020.82
2613.28
2246.07
1915.01
1616
1345
1098.04
871.25
660.826
463.045
274.248
90.8204
281.376
847.128
1421.87
2011.56
2622.09
3259.29
3928.85
4636.28
5386.91
6185.77
7037.55
7946.54
8916.55
9950.84
11052
12222
13462
14772.2
16152
17600
19113.6
20689.1
22321.9
24006.4
25735.8
27502.4
29297.3
31110.8
32932.5
34751
36554.3
38330
40065.1
41746.4
43360.9
44895.3
46336.8
47673
48892.2
49983.4
50936.6
51742.9
52394.7
52885.8
53211.4
53368.3
53354.8
53171.1
52818.9
52301.3
51623.2
50791
49812.4
48696.4
47453.1
46093.5
44629.5
43073.7
41439.1
39738.9
37986.5
36195.2
34378
32547.6
30716.1
28894.9
27094.9
25325.8
23596.7
21915.4
20288.9
18723.3
17223.4
15793.1
14435.4
13152.4
11945.1
10814
9758.52
8777.72
7869.87
7032.77
6263.77
5559.83
4917.63
4333.59
3803.95
3324.82
2892.25
2502.23
2150.75
1833.85
1547.6
1288.13
1051.66
834.474
632.95
443.522
262.688
86.993
261.346
786.851
1320.79
1868.75
2436.26
3028.8
3651.71
4310.18
5009.2
5753.54
6547.6
7395.45
8300.7
9266.43
10295.1
11388.7
12548.2
13774.1
15065.7
16421.8
17839.9
19316.8
20848.2
22428.9
24052.5
25711.8
27398.6
29103.9
30817.8
32529.7
34228.3
35902
37538.5
39125.5
40650.6
42101.5
43465.8
44732.1
45889
46926.2
47834.3
48604.7
49230.2
49704.8
50023.8
50184.2
50184.3
50024.1
49704.9
49229.8
48603.3
47831.1
46920.4
45879.7
44718.3
43446.7
42076
40618
39084.8
37489
35843.1
34159.7
32451.1
30729.2
29005.5
27290.8
25595.4
23928.5
22298.6
20713.4
19179.3
17702.2
16286.7
14936.5
13654.6
12442.8
11302.3
10233.4
9235.91
8308.74
7450.36
6658.71
5931.32
5265.36
4657.69
4104.96
3603.63
3150.04
2740.46
2371.12
2038.23
1738.04
1466.84
1220.99
996.897
791.061
600.045
420.477
249.044
82.4754
239.087
719.864
1208.44
1710
2229.66
2772.48
3343.42
3947.3
4588.76
5272.21
6001.77
6781.24
7613.98
8502.91
9450.37
10458.1
11527.3
12658.3
13850.7
15103.2
16413.9
17779.6
19196.5
20659.8
22163.8
23701.7
25266.1
26848.6
28440.1
30030.7
31610.2
33167.6
34691.7
36170.9
37593.8
38948.7
40224.4
41409.9
42494.8
43469.3
44324.6
45052.7
45646.6
46100.8
46410.7
46573.5
46587.3
46452
46168.8
45740.4
45170.7
44465.2
43630.4
42674
41604.6
40431.9
39166.2
37818.4
36399.8
34922
33396.7
31835.6
30250.1
28651.4
27050.2
25456.6
23880.1
22329.6
20812.8
19337.1
17908.5
16532.4
15213.2
13954.6
12759.2
11628.9
10564.8
9567.27
8636.09
7770.35
6968.65
6229.12
5549.46
4927.06
4359.02
3842.24
3373.42
2949.16
2566
2220.4
1908.87
1627.89
1374
1143.8
933.942
741.15
562.213
393.982
233.358
77.2816
214.744
646.603
1085.57
1536.35
2003.62
2491.99
3005.98
3550
4128.29
4744.89
5403.59
6107.87
6860.83
7665.18
8523.11
9436.3
10405.8
11432.1
12514.7
13652.8
14844.5
16087.1
17377.1
18710.3
20081.5
21484.6
22912.9
24358.7
25813.9
27269.5
28716.1
30143.7
31542
32900.5
34208.7
35456
36631.9
37726.4
38729.9
39633.3
40428.5
41107.9