/*--------------------------------*- C++ -*----------------------------------*\
  =========                 |
  \\      /  F ield         | OpenFOAM: The Open Source CFD Toolbox
   \\    /   O peration     | Website:  https://openfoam.org
    \\  /    A nd           | Version:  9
     \\/     M anipulation  |
\*---------------------------------------------------------------------------*/
FoamFile
{
    format      ascii;
    class       volScalarField;
    location    "0.1";
    object      gradTz;
}
// * * * * * * * * * * * * * * * * * * * * * * * * * * * * * * * * * * * * * //

dimensions      [0 -1 0 1 0 0 0];

internalField   nonuniform List<scalar> 
200000
(
-6343.47
-6866.29
-7020.17
-7076.48
-7101.46
-7114.37
-7121.89
-7126.7
-7130.03
-7132.52
-7134.49
-7136.14
-7137.62
-7138.98
-7140.29
-7141.57
-7142.86
-7144.16
-7145.49
-7146.86
-7148.26
-7149.7
-7151.17
-7152.67
-7154.21
-7155.76
-7157.32
-7158.89
-7160.46
-7162.01
-7163.54
-7165.03
-7166.47
-7167.86
-7169.17
-7170.41
-7171.55
-7172.6
-7173.53
-7174.34
-7175.03
-7175.59
-7176
-7176.28
-7176.41
-7176.39
-7176.23
-7175.92
-7175.47
-7174.88
-7174.16
-7173.32
-7172.36
-7171.29
-7170.12
-7168.86
-7167.52
-7166.11
-7164.65
-7163.15
-7161.61
-7160.05
-7158.48
-7156.91
-7155.34
-7153.8
-7152.28
-7150.8
-7149.35
-7147.96
-7146.61
-7145.33
-7144.1
-7142.93
-7141.82
-7140.78
-7139.8
-7138.88
-7138.02
-7137.21
-7136.45
-7135.73
-7135.05
-7134.39
-7133.74
-7133.08
-7132.38
-7131.61
-7130.71
-7129.61
-7128.18
-7126.21
-7123.38
-7119.05
-7112
-7099.53
-7074.99
-7019.12
-6865.66
-6343.26
-6866.29
-7871.97
-8227.94
-8373.89
-8442.83
-8479.68
-8501.52
-8515.64
-8525.49
-8532.86
-8538.73
-8543.69
-8548.1
-8552.19
-8556.11
-8559.97
-8563.84
-8567.76
-8571.76
-8575.87
-8580.09
-8584.42
-8588.85
-8593.38
-8598
-8602.67
-8607.38
-8612.11
-8616.83
-8621.5
-8626.09
-8630.58
-8634.93
-8639.1
-8643.06
-8646.79
-8650.23
-8653.37
-8656.18
-8658.64
-8660.71
-8662.38
-8663.64
-8664.46
-8664.85
-8664.8
-8664.31
-8663.39
-8662.04
-8660.27
-8658.11
-8655.57
-8652.67
-8649.45
-8645.92
-8642.13
-8638.1
-8633.87
-8629.48
-8624.94
-8620.31
-8615.61
-8610.88
-8606.15
-8601.44
-8596.79
-8592.22
-8587.75
-8583.41
-8579.2
-8575.16
-8571.28
-8567.58
-8564.06
-8560.73
-8557.59
-8554.63
-8551.86
-8549.27
-8546.83
-8544.55
-8542.39
-8540.34
-8538.36
-8536.41
-8534.43
-8532.34
-8530.03
-8527.35
-8524.06
-8519.8
-8513.99
-8505.64
-8492.96
-8472.52
-8437.03
-8369.42
-8224.77
-7870.07
-6865.66
-7020.17
-8227.94
-8695.06
-8900.92
-9003.4
-9060.15
-9094.6
-9117.23
-9133.2
-9145.25
-9154.91
-9163.12
-9170.44
-9177.26
-9183.81
-9190.26
-9196.74
-9203.31
-9210.02
-9216.91
-9223.98
-9231.25
-9238.69
-9246.29
-9254.04
-9261.88
-9269.8
-9277.73
-9285.65
-9293.49
-9301.21
-9308.75
-9316.05
-9323.05
-9329.71
-9335.96
-9341.75
-9347.02
-9351.75
-9355.87
-9359.35
-9362.16
-9364.27
-9365.66
-9366.32
-9366.24
-9365.42
-9363.87
-9361.61
-9358.65
-9355.02
-9350.75
-9345.89
-9340.48
-9334.57
-9328.21
-9321.45
-9314.34
-9306.96
-9299.35
-9291.57
-9283.69
-9275.74
-9267.8
-9259.89
-9252.09
-9244.41
-9236.91
-9229.61
-9222.56
-9215.76
-9209.25
-9203.03
-9197.13
-9191.54
-9186.26
-9181.3
-9176.65
-9172.29
-9168.21
-9164.38
-9160.76
-9157.32
-9154.01
-9150.75
-9147.44
-9143.97
-9140.14
-9135.72
-9130.31
-9123.35
-9113.91
-9100.45
-9080.25
-9048.15
-8993.68
-8893.42
-8689.74
-8224.76
-7019.11
-7076.48
-8373.89
-8900.92
-9144.67
-9271.11
-9343.44
-9388.41
-9418.52
-9440.07
-9456.5
-9469.81
-9481.19
-9491.4
-9500.93
-9510.13
-9519.22
-9528.34
-9537.61
-9547.1
-9556.83
-9566.83
-9577.1
-9587.63
-9598.38
-9609.34
-9620.44
-9631.64
-9642.87
-9654.07
-9665.17
-9676.09
-9686.76
-9697.1
-9707.01
-9716.44
-9725.28
-9733.48
-9740.96
-9747.65
-9753.49
-9758.42
-9762.41
-9765.4
-9767.38
-9768.32
-9768.22
-9767.07
-9764.88
-9761.68
-9757.5
-9752.37
-9746.34
-9739.47
-9731.82
-9723.45
-9714.45
-9704.88
-9694.84
-9684.39
-9673.62
-9662.62
-9651.46
-9640.21
-9628.97
-9617.78
-9606.73
-9595.87
-9585.25
-9574.92
-9564.93
-9555.32
-9546.1
-9537.3
-9528.94
-9521.02
-9513.56
-9506.54
-9499.96
-9493.79
-9488.01
-9482.59
-9477.49
-9472.64
-9467.97
-9463.38
-9458.75
-9453.9
-9448.58
-9442.47
-9435.05
-9425.56
-9412.81
-9394.81
-9368.14
-9326.48
-9257.38
-9134.08
-8893.4
-8369.39
-7074.99
-7101.46
-8442.83
-9003.4
-9271.11
-9414.34
-9498.52
-9552.06
-9588.57
-9615.11
-9635.61
-9652.38
-9666.84
-9679.91
-9692.18
-9704.06
-9715.82
-9727.67
-9739.71
-9752.04
-9764.71
-9777.73
-9791.11
-9804.83
-9818.85
-9833.12
-9847.6
-9862.2
-9876.85
-9891.45
-9905.93
-9920.18
-9934.1
-9947.58
-9960.52
-9972.81
-9984.36
-9995.06
-10004.8
-10013.6
-10021.2
-10027.6
-10032.8
-10036.8
-10039.4
-10040.6
-10040.5
-10039
-10036.1
-10032
-10026.5
-10019.9
-10012
-10003.1
-9993.09
-9982.19
-9970.45
-9957.99
-9944.89
-9931.27
-9917.23
-9902.88
-9888.32
-9873.66
-9859
-9844.41
-9829.99
-9815.83
-9801.98
-9788.51
-9775.48
-9762.93
-9750.9
-9739.42
-9728.52
-9718.19
-9708.46
-9699.3
-9690.72
-9682.68
-9675.15
-9668.09
-9661.45
-9655.15
-9649.09
-9643.16
-9637.19
-9630.97
-9624.2
-9616.46
-9607.15
-9595.35
-9579.64
-9557.73
-9525.68
-9476.46
-9396.48
-9257.33
-8993.61
-8436.98
-7099.51
-7114.37
-8479.68
-9060.15
-9343.44
-9498.52
-9591.69
-9652.14
-9694.09
-9725.06
-9749.31
-9769.37
-9786.84
-9802.75
-9817.77
-9832.38
-9846.89
-9861.53
-9876.44
-9891.73
-9907.45
-9923.62
-9940.24
-9957.28
-9974.7
-9992.45
-10010.4
-10028.6
-10046.8
-10065
-10083
-10100.7
-10118
-10134.8
-10150.9
-10166.2
-10180.6
-10193.9
-10206.1
-10216.9
-10226.4
-10234.5
-10241
-10245.9
-10249.1
-10250.7
-10250.6
-10248.7
-10245.2
-10240.1
-10233.3
-10225
-10215.3
-10204.1
-10191.8
-10178.2
-10163.6
-10148.1
-10131.9
-10114.9
-10097.5
-10079.6
-10061.5
-10043.3
-10025
-10006.9
-9988.96
-9971.34
-9954.11
-9937.35
-9921.14
-9905.53
-9890.56
-9876.28
-9862.71
-9849.87
-9837.76
-9826.37
-9815.69
-9805.7
-9796.35
-9787.58
-9779.34
-9771.53
-9764.05
-9756.74
-9749.42
-9741.83
-9733.64
-9724.35
-9713.27
-9699.37
-9681.07
-9655.84
-9619.42
-9564.33
-9476.36
-9326.34
-9048.02
-8472.43
-7111.96
-7121.89
-8501.52
-9094.6
-9388.41
-9552.06
-9652.14
-9718.21
-9764.81
-9799.73
-9827.45
-9850.66
-9871.07
-9889.8
-9907.61
-9925.01
-9942.35
-9959.9
-9977.8
-9996.18
-10015.1
-10034.6
-10054.6
-10075.1
-10096.1
-10117.5
-10139.2
-10161.1
-10183
-10205
-10226.7
-10248.1
-10269
-10289.2
-10308.7
-10327.1
-10344.5
-10360.6
-10375.3
-10388.4
-10399.9
-10409.6
-10417.5
-10423.4
-10427.4
-10429.3
-10429.1
-10427
-10422.8
-10416.6
-10408.4
-10398.5
-10386.7
-10373.3
-10358.4
-10342.1
-10324.5
-10305.8
-10286.2
-10265.8
-10244.7
-10223.2
-10201.4
-10179.4
-10157.4
-10135.5
-10113.9
-10092.6
-10071.8
-10051.6
-10032
-10013.2
-9995.13
-9977.89
-9961.52
-9946.02
-9931.41
-9917.67
-9904.79
-9892.74
-9881.46
-9870.91
-9861
-9851.62
-9842.66
-9833.94
-9825.24
-9816.29
-9806.69
-9795.92
-9783.19
-9767.4
-9746.84
-9718.81
-9678.87
-9619.24
-9525.41
-9367.86
-9080.01
-8492.8
-7118.99
-7126.7
-8515.64
-9117.23
-9418.52
-9588.57
-9694.09
-9764.81
-9815.44
-9853.93
-9884.89
-9911.13
-9934.44
-9956.02
-9976.67
-9996.94
-10017.2
-10037.8
-10058.8
-10080.5
-10102.7
-10125.7
-10149.3
-10173.5
-10198.3
-10223.5
-10249.1
-10275
-10300.9
-10326.8
-10352.4
-10377.7
-10402.4
-10426.3
-10449.3
-10471.1
-10491.6
-10510.7
-10528
-10543.6
-10557.2
-10568.7
-10578
-10585.1
-10589.8
-10592.1
-10592
-10589.4
-10584.5
-10577.2
-10567.7
-10555.9
-10542.1
-10526.3
-10508.7
-10489.4
-10468.7
-10446.7
-10423.5
-10399.4
-10374.5
-10349.1
-10323.3
-10297.4
-10271.4
-10245.5
-10220
-10194.9
-10170.3
-10146.4
-10123.3
-10101
-10079.7
-10059.3
-10040
-10021.7
-10004.4
-9988.18
-9972.97
-9958.74
-9945.44
-9933
-9921.33
-9910.31
-9899.81
-9889.62
-9879.52
-9869.19
-9858.21
-9846
-9831.74
-9814.23
-9791.69
-9761.31
-9718.52
-9655.38
-9557.21
-9394.33
-9100.06
-8505.38
-7123.29
-7130.03
-8525.49
-9133.2
-9440.07
-9615.11
-9725.06
-9799.73
-9853.93
-9895.7
-9929.74
-9958.93
-9985.14
-10009.6
-10033.2
-10056.4
-10079.8
-10103.5
-10127.8
-10152.9
-10178.7
-10205.3
-10232.7
-10260.8
-10289.6
-10318.9
-10348.7
-10378.8
-10408.9
-10439
-10468.9
-10498.2
-10527
-10554.8
-10581.5
-10607
-10630.9
-10653
-10673.3
-10691.4
-10707.3
-10720.7
-10731.6
-10739.8
-10745.3
-10748.1
-10748
-10745.1
-10739.4
-10731
-10719.9
-10706.3
-10690.2
-10671.9
-10651.5
-10629.1
-10605
-10579.4
-10552.5
-10524.5
-10495.6
-10466
-10436.1
-10405.9
-10375.6
-10345.6
-10315.8
-10286.6
-10258
-10230.3
-10203.4
-10177.5
-10152.6
-10128.9
-10106.4
-10085.1
-10065
-10046.2
-10028.5
-10011.9
-9996.48
-9982.04
-9968.51
-9955.76
-9943.64
-9931.93
-9920.38
-9908.66
-9896.3
-9882.69
-9866.97
-9847.9
-9823.61
-9791.24
-9746.12
-9680.23
-9578.79
-9412.06
-9113.32
-8513.61
-7126.08
-7132.52
-8532.86
-9145.25
-9456.5
-9635.61
-9749.31
-9827.45
-9884.89
-9929.74
-9966.75
-9998.86
-10028
-10055.4
-10082
-10108.3
-10134.9
-10162
-10189.8
-10218.4
-10248
-10278.5
-10309.9
-10342.2
-10375.3
-10409
-10443.2
-10477.7
-10512.3
-10546.9
-10581.2
-10615
-10648.1
-10680.1
-10710.8
-10740.1
-10767.6
-10793.1
-10816.4
-10837.3
-10855.6
-10871.1
-10883.7
-10893.2
-10899.6
-10902.8
-10902.8
-10899.5
-10893
-10883.4
-10870.7
-10855.1
-10836.7
-10815.7
-10792.2
-10766.6
-10738.9
-10709.5
-10678.6
-10646.4
-10613.2
-10579.3
-10544.8
-10510.1
-10475.4
-10440.8
-10406.6
-10373
-10340.2
-10308.2
-10277.3
-10247.5
-10219
-10191.7
-10165.8
-10141.3
-10118.2
-10096.5
-10076.2
-10057.2
-10039.4
-10022.9
-10007.4
-9992.78
-9978.95
-9965.65
-9952.61
-9939.45
-9925.7
-9910.73
-9893.61
-9873.08
-9847.24
-9813.15
-9766.09
-9698.01
-9594.06
-9424.45
-9122.5
-8519.27
-7127.99
-7134.49
-8538.73
-9154.91
-9469.81
-9652.38
-9769.37
-9850.66
-9911.13
-9958.93
-9998.86
-10033.9
-10066
-10096.4
-10126.1
-10155.7
-10185.7
-10216.3
-10247.8
-10280.3
-10313.8
-10348.5
-10384.2
-10420.9
-10458.5
-10496.9
-10535.8
-10575.1
-10614.6
-10654
-10693
-10731.5
-10769.2
-10805.7
-10840.7
-10874.1
-10905.5
-10934.6
-10961.2
-10985
-11005.9
-11023.6
-11038
-11049
-11056.3
-11060
-11060.1
-11056.4
-11049.1
-11038.2
-11023.8
-11006.1
-10985.2
-10961.3
-10934.7
-10905.5
-10874
-10840.6
-10805.4
-10768.7
-10731
-10692.3
-10653.1
-10613.6
-10574
-10534.6
-10495.7
-10457.4
-10420
-10383.6
-10348.3
-10314.4
-10281.9
-10250.8
-10221.3
-10193.4
-10167.1
-10142.3
-10119.2
-10097.5
-10077.4
-10058.5
-10040.9
-10024.4
-10008.8
-9993.78
-9979.17
-9964.54
-9949.39
-9933.04
-9914.58
-9892.68
-9865.41
-9829.81
-9781.11
-9711.22
-9605.28
-9433.48
-9129.13
-8523.33
-7129.36
-7136.14
-8543.69
-9163.12
-9481.19
-9666.84
-9786.84
-9871.07
-9934.44
-9985.14
-10028
-10066
-10101.1
-10134.7
-10167.6
-10200.7
-10234.2
-10268.5
-10303.9
-10340.5
-10378.3
-10417.4
-10457.7
-10499.2
-10541.6
-10584.9
-10628.9
-10673.3
-10717.9
-10762.4
-10806.6
-10850.1
-10892.7
-10934
-10973.7
-11011.4
-11046.9
-11079.9
-11110
-11137.1
-11160.8
-11180.9
-11197.2
-11209.7
-11218.1
-11222.4
-11222.5
-11218.4
-11210.3
-11198
-11181.9
-11161.9
-11138.4
-11111.4
-11081.4
-11048.4
-11012.9
-10975.1
-10935.4
-10894
-10851.3
-10807.6
-10763.3
-10718.6
-10673.9
-10629.4
-10585.3
-10542.1
-10499.7
-10458.6
-10418.7
-10380.3
-10343.5
-10308.4
-10275
-10243.4
-10213.7
-10185.7
-10159.5
-10135.1
-10112.3
-10091
-10071.1
-10052.6
-10035
-10018.3
-10002
-9985.87
-9969.27
-9951.55
-9931.76
-9908.54
-9879.94
-9842.97
-9792.85
-9721.44
-9613.87
-9440.33
-9134.12
-8526.37
-7130.38
-7137.62
-8548.1
-9170.44
-9491.4
-9679.91
-9802.75
-9889.8
-9956.02
-10009.6
-10055.4
-10096.4
-10134.7
-10171.5
-10207.9
-10244.5
-10281.8
-10320.1
-10359.7
-10400.6
-10443
-10486.8
-10531.9
-10578.4
-10626
-10674.6
-10724
-10773.8
-10823.9
-10874
-10923.6
-10972.5
-11020.4
-11066.8
-11111.4
-11153.9
-11193.8
-11231
-11264.9
-11295.4
-11322.1
-11344.7
-11363.2
-11377.3
-11386.8
-11391.7
-11392
-11387.5
-11378.5
-11364.8
-11346.8
-11324.4
-11298.1
-11267.9
-11234.2
-11197.2
-11157.4
-11115
-11070.3
-11023.9
-10976
-10926.9
-10877.1
-10826.9
-10776.7
-10726.7
-10677.2
-10628.6
-10581
-10534.7
-10489.9
-10446.8
-10405.4
-10365.9
-10328.4
-10292.9
-10259.5
-10228
-10198.6
-10171.1
-10145.5
-10121.7
-10099.4
-10078.6
-10059.1
-10040.5
-10022.5
-10004.7
-9986.66
-9967.54
-9946.4
-9921.9
-9892.03
-9853.8
-9802.39
-9729.66
-9620.72
-9445.74
-9138.04
-8528.74
-7131.18
-7138.98
-8552.19
-9177.26
-9500.93
-9692.18
-9817.77
-9907.61
-9976.67
-10033.2
-10082
-10126.1
-10167.6
-10207.9
-10247.9
-10288.3
-10329.6
-10372.1
-10416.1
-10461.6
-10508.8
-10557.6
-10608
-10659.8
-10713
-10767.2
-10822.3
-10878
-10934
-10989.8
-11045.3
-11100
-11153.5
-11205.4
-11255.3
-11302.8
-11347.6
-11389.1
-11427.1
-11461.2
-11491.2
-11516.6
-11537.4
-11553.2
-11564
-11569.6
-11570
-11565.2
-11555.1
-11540
-11519.9
-11495.1
-11465.7
-11432.1
-11394.5
-11353.3
-11308.8
-11261.5
-11211.7
-11159.8
-11106.3
-11051.5
-10995.9
-10939.8
-10883.6
-10827.8
-10772.5
-10718.1
-10665
-10613.2
-10563.1
-10514.9
-10468.6
-10424.5
-10382.6
-10342.9
-10305.5
-10270.3
-10237.4
-10206.7
-10178.1
-10151.5
-10126.7
-10103.6
-10081.9
-10061.3
-10041.5
-10022.1
-10002.4
-9981.88
-9959.39
-9933.6
-9902.51
-9863.07
-9810.48
-9736.56
-9626.41
-9450.21
-9141.26
-8530.68
-7131.83
-7140.29
-8556.11
-9183.81
-9510.13
-9704.06
-9832.38
-9925.01
-9996.94
-10056.4
-10108.3
-10155.7
-10200.7
-10244.5
-10288.3
-10332.7
-10378.2
-10425.2
-10473.8
-10524.2
-10576.5
-10630.7
-10686.6
-10744.2
-10803.2
-10863.4
-10924.7
-10986.6
-11048.8
-11110.9
-11172.6
-11233.5
-11293
-11350.8
-11406.3
-11459.2
-11509.1
-11555.3
-11597.7
-11635.8
-11669.2
-11697.6
-11720.8
-11738.6
-11750.7
-11757.1
-11757.6
-11752.4
-11741.4
-11724.7
-11702.5
-11674.9
-11642.4
-11605.1
-11563.4
-11517.6
-11468.3
-11415.7
-11360.4
-11302.7
-11243.2
-11182.3
-11120.5
-11058.1
-10995.7
-10933.5
-10872.1
-10811.6
-10752.4
-10694.9
-10639.2
-10585.5
-10534
-10484.9
-10438.2
-10394
-10352.4
-10313.3
-10276.7
-10242.6
-10210.8
-10181.2
-10153.7
-10128.1
-10104.1
-10081.4
-10059.7
-10038.5
-10017.3
-9995.2
-9971.33
-9944.25
-9911.93
-9871.33
-9817.6
-9742.57
-9631.34
-9454.04
-9144
-8532.33
-7132.38
-7141.57
-8559.97
-9190.26
-9519.22
-9715.82
-9846.89
-9942.35
-10017.2
-10079.8
-10134.9
-10185.7
-10234.2
-10281.8
-10329.6
-10378.2
-10428.2
-10479.8
-10533.4
-10589
-10646.7
-10706.6
-10768.4
-10832
-10897.3
-10963.9
-11031.7
-11100.2
-11169.1
-11237.9
-11306.2
-11373.6
-11439.5
-11503.6
-11565.1
-11623.8
-11679.1
-11730.4
-11777.4
-11819.7
-11856.8
-11888.5
-11914.3
-11934.1
-11947.7
-11954.9
-11955.7
-11950
-11937.9
-11919.6
-11895.1
-11864.8
-11828.9
-11787.7
-11741.6
-11691.1
-11636.5
-11578.3
-11517.1
-11453.4
-11387.5
-11320.1
-11251.7
-11182.6
-11113.5
-11044.7
-10976.6
-10909.6
-10844.1
-10780.3
-10718.6
-10659.1
-10602.1
-10547.7
-10495.9
-10447
-10400.9
-10357.6
-10317
-10279.2
-10244
-10211.3
-10180.9
-10152.6
-10126.2
-10101.3
-10077.5
-10054.5
-10031.6
-10007.9
-9982.65
-9954.25
-9920.7
-9878.94
-9824.11
-9748.03
-9635.77
-9457.48
-9146.45
-8533.79
-7132.86
-7142.86
-8563.84
-9196.74
-9528.34
-9727.67
-9861.53
-9959.9
-10037.8
-10103.5
-10162
-10216.3
-10268.5
-10320.1
-10372.1
-10425.2
-10479.8
-10536.4
-10595.2
-10656.4
-10719.8
-10785.6
-10853.7
-10923.7
-10995.6
-11069.1
-11143.8
-11219.3
-11295.2
-11371.1
-11446.5
-11520.8
-11593.6
-11664.2
-11732.2
-11797
-11858
-11914.8
-11966.8
-12013.6
-12054.6
-12089.7
-12118.3
-12140.4
-12155.5
-12163.6
-12164.6
-12158.6
-12145.4
-12125.4
-12098.5
-12065.2
-12025.8
-11980.5
-11929.7
-11874.1
-11814
-11750
-11682.5
-11612.2
-11539.7
-11465.4
-11389.9
-11313.8
-11237.5
-11161.6
-11086.5
-11012.6
-10940.3
-10870
-10801.9
-10736.2
-10673.3
-10613.2
-10556.1
-10502.1
-10451.2
-10403.4
-10358.7
-10317
-10278.2
-10242.2
-10208.7
-10177.6
-10148.5
-10121.3
-10095.4
-10070.4
-10045.7
-10020.4
-9993.67
-9963.91
-9929.1
-9886.18
-9830.26
-9753.15
-9639.9
-9460.66
-9148.7
-8535.14
-7133.31
-7144.16
-8567.76
-9203.31
-9537.61
-9739.71
-9876.44
-9977.8
-10058.8
-10127.8
-10189.8
-10247.8
-10303.9
-10359.7
-10416.1
-10473.8
-10533.4
-10595.2
-10659.5
-10726.5
-10796
-10868.1
-10942.7
-11019.6
-11098.5
-11179.1
-11261.1
-11344
-11427.4
-11510.8
-11593.7
-11675.4
-11755.4
-11833.1
-11907.8
-11979.1
-12046.3
-12108.8
-12166.1
-12217.6
-12262.9
-12301.6
-12333.2
-12357.6
-12374.4
-12383.5
-12384.9
-12378.4
-12364.1
-12342.2
-12312.9
-12276.5
-12233.3
-12183.7
-12128.1
-12067.1
-12001.1
-11930.8
-11856.8
-11779.7
-11700
-11618.4
-11535.5
-11451.9
-11368.1
-11284.7
-11202.1
-11120.9
-11041.5
-10964.1
-10889.2
-10817.1
-10747.9
-10681.8
-10619.1
-10559.7
-10503.7
-10451.2
-10402
-10356.2
-10313.6
-10274
-10237.2
-10203.2
-10171.4
-10141.6
-10113.5
-10086.4
-10059.8
-10032.9
-10004.6
-9973.44
-9937.34
-9893.23
-9836.22
-9758.08
-9643.86
-9463.7
-9150.85
-8536.42
-7133.74
-7145.49
-8571.76
-9210.02
-9547.1
-9752.04
-9891.73
-9996.18
-10080.5
-10152.9
-10218.4
-10280.3
-10340.5
-10400.6
-10461.6
-10524.2
-10589
-10656.4
-10726.5
-10799.5
-10875.4
-10954.2
-11035.7
-11119.7
-11206
-11294.2
-11383.9
-11474.6
-11565.9
-11657.2
-11747.9
-11837.3
-11925
-12010.1
-12092.1
-12170.2
-12243.9
-12312.4
-12375.3
-12431.9
-12481.6
-12524.2
-12559
-12585.9
-12604.5
-12614.7
-12616.4
-12609.5
-12594.1
-12570.3
-12538.5
-12498.8
-12451.6
-12397.4
-12336.7
-12270
-12198
-12121.1
-12040.2
-11955.8
-11868.6
-11779.3
-11688.6
-11597.1
-11505.3
-11414
-11323.6
-11234.7
-11147.7
-11063
-10980.9
-10901.9
-10826.1
-10753.7
-10684.9
-10619.9
-10558.6
-10501
-10447.1
-10396.9
-10350.3
-10307
-10266.8
-10229.6
-10194.9
-10162.5
-10132
-10102.8
-10074.2
-10045.5
-10015.6
-9982.99
-9945.57
-9900.24
-9842.11
-9762.93
-9647.75
-9466.66
-9152.94
-8537.66
-7134.15
-7146.86
-8575.87
-9216.91
-9556.83
-9764.71
-9907.45
-10015.1
-10102.7
-10178.7
-10248
-10313.8
-10378.3
-10443
-10508.8
-10576.5
-10646.7
-10719.8
-10796
-10875.4
-10958
-11043.8
-11132.5
-11224.1
-11318.1
-11414.2
-11512
-11611
-11710.5
-11810.1
-11909
-12006.7
-12102.4
-12195.3
-12284.8
-12370.2
-12450.7
-12525.7
-12594.4
-12656.3
-12710.8
-12757.4
-12795.7
-12825.2
-12845.8
-12857.1
-12859.1
-12851.8
-12835.3
-12809.6
-12775
-12731.9
-12680.6
-12621.7
-12555.6
-12483
-12404.5
-12320.8
-12232.6
-12140.6
-12045.5
-11948.2
-11849.2
-11749.4
-11649.3
-11549.6
-11451
-11354
-11259
-11166.5
-11077
-10990.7
-10907.9
-10828.9
-10753.8
-10682.8
-10615.8
-10553
-10494.2
-10439.4
-10388.5
-10341.2
-10297.4
-10256.9
-10219.2
-10184.1
-10151.1
-10119.6
-10089
-10058.4
-10026.8
-9992.67
-9953.87
-9907.3
-9848.02
-9767.79
-9651.62
-9469.62
-9155.02
-8538.9
-7134.56
-7148.26
-8580.09
-9223.98
-9566.83
-9777.73
-9923.62
-10034.6
-10125.7
-10205.3
-10278.5
-10348.5
-10417.4
-10486.8
-10557.6
-10630.7
-10706.6
-10785.6
-10868.1
-10954.2
-11043.8
-11136.8
-11233.2
-11332.6
-11434.7
-11539.1
-11645.4
-11752.9
-11861.1
-11969.4
-12077
-12183.2
-12287.3
-12388.4
-12485.9
-12578.8
-12666.5
-12748.1
-12823.1
-12890.6
-12950
-13000.9
-13042.8
-13075.1
-13097.7
-13110.3
-13112.8
-13105.1
-13087.3
-13059.6
-13022.2
-12975.6
-12920
-12856.2
-12784.5
-12705.7
-12620.5
-12529.6
-12433.8
-12333.8
-12230.5
-12124.7
-12017.2
-11908.6
-11799.8
-11691.5
-11584.2
-11478.6
-11375.3
-11274.7
-11177.3
-11083.4
-10993.4
-10907.4
-10825.7
-10748.4
-10675.5
-10607.1
-10543.2
-10483.6
-10428.2
-10376.8
-10329.2
-10285.2
-10244.4
-10206.4
-10170.7
-10136.9
-10104.1
-10071.6
-10038.3
-10002.6
-9962.33
-9914.46
-9854.01
-9772.69
-9655.53
-9472.59
-9157.11
-8540.14
-7134.97
-7149.7
-8584.42
-9231.25
-9577.1
-9791.11
-9940.24
-10054.6
-10149.3
-10232.7
-10309.9
-10384.2
-10457.7
-10531.9
-10608
-10686.6
-10768.4
-10853.7
-10942.7
-11035.7
-11132.5
-11233.2
-11337.4
-11445
-11555.5
-11668.6
-11783.6
-11900.1
-12017.4
-12134.7
-12251.3
-12366.5
-12479.3
-12589
-12694.7
-12795.6
-12890.8
-12979.4
-13060.8
-13134.2
-13198.9
-13254.3
-13299.9
-13335.2
-13359.9
-13373.9
-13376.8
-13368.7
-13349.7
-13320
-13279.7
-13229.4
-13169.4
-13100.4
-13022.9
-12937.7
-12845.5
-12747.1
-12643.4
-12535.2
-12423.3
-12308.7
-12192.2
-12074.6
-11956.7
-11839.2
-11722.9
-11608.5
-11496.5
-11387.4
-11281.8
-11180
-11082.3
-10989.1
-10900.5
-10816.6
-10737.6
-10663.4
-10594.1
-10529.4
-10469.4
-10413.7
-10362.2
-10314.6
-10270.4
-10229.4
-10191
-10154.7
-10119.7
-10085.2
-10050
-10012.7
-9970.98
-9921.78
-9860.11
-9777.69
-9659.5
-9475.61
-9159.22
-8541.39
-7135.39
-7151.17
-8588.85
-9238.69
-9587.63
-9804.83
-9957.28
-10075.1
-10173.5
-10260.8
-10342.2
-10420.9
-10499.2
-10578.4
-10659.8
-10744.2
-10832
-10923.7
-11019.6
-11119.7
-11224.1
-11332.6
-11445
-11561
-11680.3
-11802.3
-11926.5
-12052.2
-12178.8
-12305.6
-12431.5
-12556
-12677.9
-12796.5
-12910.8
-13019.9
-13122.9
-13218.8
-13307
-13386.4
-13456.6
-13516.7
-13566.2
-13604.6
-13631.7
-13647
-13650.4
-13642
-13621.8
-13589.9
-13546.7
-13492.6
-13428
-13353.7
-13270.2
-13178.4
-13078.9
-12972.8
-12860.9
-12744.1
-12623.4
-12499.6
-12373.8
-12246.8
-12119.4
-11992.6
-11867
-11743.3
-11622.3
-11504.4
-11390.3
-11280.2
-11174.6
-11073.9
-10978.1
-10887.4
-10802
-10721.8
-10646.8
-10577
-10512.1
-10451.9
-10396.3
-10344.9
-10297.3
-10253.2
-10212
-10173.1
-10135.8
-10099.2
-10062.1
-10023.1
-9979.85
-9929.26
-9866.34
-9782.78
-9663.54
-9478.68
-9161.38
-8542.67
-7135.81
-7152.67
-8593.38
-9246.29
-9598.38
-9818.85
-9974.7
-10096.1
-10198.3
-10289.6
-10375.3
-10458.5
-10541.6
-10626
-10713
-10803.2
-10897.3
-10995.6
-11098.5
-11206
-11318.1
-11434.7
-11555.5
-11680.3
-11808.6
-11939.8
-12073.4
-12208.7
-12345
-12481.4
-12617.1
-12751.1
-12882.5
-13010.2
-13133.4
-13251
-13362.1
-13465.6
-13560.7
-13646.5
-13722.3
-13787.3
-13840.9
-13882.6
-13912
-13928.8
-13932.8
-13924.1
-13902.6
-13868.5
-13822.3
-13764.3
-13695.1
-13615.3
-13525.6
-13426.9
-13320.1
-13206
-13085.6
-12960
-12830.1
-12696.9
-12561.5
-12424.8
-12287.7
-12151.1
-12015.8
-11882.6
-11752.3
-11625.3
-11502.3
-11383.8
-11270
-11161.4
-11058.2
-10960.5
-10868.5
-10782.1
-10701.3
-10626
-10556.1
-10491.4
-10431.5
-10376.2
-10325.1
-10277.7
-10233.5
-10192
-10152.3
-10113.5
-10074.5
-10033.7
-9988.93
-9936.93
-9872.72
-9787.99
-9667.68
-9481.81
-9163.58
-8543.97
-7136.24
-7154.21
-8598
-9254.04
-9609.34
-9833.12
-9992.45
-10117.5
-10223.5
-10318.9
-10409
-10496.9
-10584.9
-10674.6
-10767.2
-10863.4
-10963.9
-11069.1
-11179.1
-11294.2
-11414.2
-11539.1
-11668.6
-11802.3
-11939.8
-12080.5
-12223.8
-12369
-12515.2
-12661.5
-12807.1
-12951
-13092.1
-13229.3
-13361.6
-13488
-13607.4
-13718.7
-13821
-13913.3
-13994.9
-14065
-14122.8
-14167.9
-14199.8
-14218.1
-14222.8
-14213.7
-14191
-14154.8
-14105.5
-14043.6
-13969.6
-13884.2
-13788.2
-13682.5
-13568
-13445.7
-13316.7
-13182
-13042.7
-12899.8
-12754.5
-12607.8
-12460.7
-12314.1
-12168.9
-12026
-11886
-11749.7
-11617.6
-11490.3
-11368.2
-11251.6
-11140.7
-11035.8
-10936.9
-10844.1
-10757.3
-10676.5
-10601.4
-10531.9
-10467.6
-10408.3
-10353.5
-10302.8
-10255.6
-10211.3
-10169.2
-10128.2
-10087.2
-10044.6
-9998.22
-9944.76
-9879.24
-9793.31
-9671.9
-9485.01
-9165.82
-8545.3
-7136.68
-7155.76
-8602.67
-9261.88
-9620.44
-9847.6
-10010.4
-10139.2
-10249.1
-10348.7
-10443.2
-10535.8
-10628.9
-10724
-10822.3
-10924.7
-11031.7
-11143.8
-11261.1
-11383.9
-11512
-11645.4
-11783.6
-11926.5
-12073.4
-12223.8
-12377
-12532.2
-12688.5
-12845.1
-13000.9
-13154.8
-13305.8
-13452.7
-13594.4
-13729.8
-13857.7
-13977
-14086.6
-14185.7
-14273.3
-14348.5
-14410.7
-14459.3
-14493.8
-14513.8
-14519.1
-14509.8
-14485.8
-14447.4
-14395
-14329.1
-14250.2
-14159.1
-14056.7
-13943.8
-13821.6
-13690.9
-13553.1
-13409.1
-13260.2
-13107.5
-12952.1
-12795.2
-12637.8
-12481
-12325.6
-12172.7
-12022.9
-11877
-11735.7
-11599.4
-11468.7
-11343.8
-11225.1
-11112.8
-11006.9
-10907.6
-10814.7
-10728.1
-10647.8
-10573.4
-10504.6
-10441.2
-10382.6
-10328.5
-10278.2
-10231.1
-10186.5
-10143.2
-10100.2
-10055.8
-10007.7
-9952.75
-9885.88
-9798.73
-9676.19
-9488.27
-9168.1
-8546.65
-7137.13
-7157.32
-8607.38
-9269.8
-9631.64
-9862.2
-10028.6
-10161.1
-10275
-10378.8
-10477.7
-10575.1
-10673.3
-10773.8
-10878
-10986.6
-11100.2
-11219.3
-11344
-11474.6
-11611
-11752.9
-11900.1
-12052.2
-12208.7
-12369
-12532.2
-12697.6
-12864.3
-13031.2
-13197.3
-13361.5
-13522.6
-13679.3
-13830.6
-13975.1
-14111.7
-14239.1
-14356.3
-14462.3
-14556
-14636.5
-14703.2
-14755.4
-14792.5
-14814.2
-14820.3
-14810.7
-14785.5
-14744.9
-14689.4
-14619.4
-14535.6
-14438.8
-14329.9
-14209.8
-14079.6
-13940.5
-13793.7
-13640.3
-13481.6
-13318.9
-13153.2
-12986
-12818.2
-12650.9
-12485.3
-12322.1
-12162.4
-12006.7
-11855.9
-11710.5
-11571
-11437.8
-11311.1
-11191.2
-11078.3
-10972.2
-10873.1
-10780.7
-10695
-10615.6
-10542.3
-10474.7
-10412.3
-10354.7
-10301.2
-10251.3
-10204
-10158.5
-10113.4
-10067.1
-10017.3
-9960.87
-9892.63
-9804.23
-9680.55
-9491.58
-9170.41
-8548.02
-7137.58
-7158.89
-8612.11
-9277.73
-9642.87
-9876.85
-10046.8
-10183
-10300.9
-10408.9
-10512.3
-10614.6
-10717.9
-10823.9
-10934
-11048.8
-11169.1
-11295.2
-11427.4
-11565.9
-11710.5
-11861.1
-12017.4
-12178.8
-12345
-12515.2
-12688.5
-12864.3
-13041.4
-13218.8
-13395.3
-13569.9
-13741.2
-13907.9
-14068.9
-14222.6
-14368
-14503.7
-14628.6
-14741.5
-14841.4
-14927.4
-14998.7
-15054.5
-15094.3
-15117.8
-15124.7
-15114.9
-15088.5
-15045.8
-14987.1
-14913
-14824.3
-14721.7
-14606.2
-14478.8
-14340.7
-14193.1
-14037.2
-13874.3
-13705.8
-13532.9
-13356.9
-13179.2
-13000.8
-12823
-12646.9
-12473.5
-12303.6
-12138.1
-11977.8
-11823.1
-11674.7
-11533
-11398.3
-11270.8
-11150.6
-11037.7
-10932.3
-10834
-10742.8
-10658.4
-10580.5
-10508.6
-10442.3
-10381.2
-10324.6
-10271.7
-10221.9
-10173.9
-10126.7
-10078.5
-10027.1
-9969.08
-9899.45
-9809.79
-9684.97
-9494.92
-9172.75
-8549.4
-7138.04
-7160.46
-8616.83
-9285.65
-9654.07
-9891.45
-10065
-10205
-10326.8
-10439
-10546.9
-10654
-10762.4
-10874
-10989.8
-11110.9
-11237.9
-11371.1
-11510.8
-11657.2
-11810.1
-11969.4
-12134.7
-12305.6
-12481.4
-12661.5
-12845.1
-13031.2
-13218.8
-13406.7
-13593.8
-13778.8
-13960.3
-14137.1
-14307.8
-14470.9
-14625.2
-14769.2
-14901.8
-15021.8
-15128
-15219.4
-15295.3
-15354.8
-15397.5
-15422.8
-15430.5
-15420.5
-15393
-15348.1
-15286.3
-15208.3
-15114.6
-15006.2
-14884.2
-14749.5
-14603.4
-14447.2
-14282.2
-14109.8
-13931.3
-13748.3
-13561.9
-13373.6
-13184.7
-12996.4
-12809.7
-12625.9
-12445.9
-12270.5
-12100.5
-11936.5
-11779.2
-11628.9
-11486.1
-11350.9
-11223.4
-11103.8
-10991.9
-10887.8
-10791
-10701.5
-10618.9
-10542.8
-10472.6
-10407.9
-10348
-10292.3
-10239.8
-10189.5
-10140.2
-10090.1
-10036.9
-9977.34
-9906.32
-9815.4
-9689.4
-9498.28
-9175.11
-8550.8
-7138.5
-7162.01
-8621.5
-9293.49
-9665.17
-9905.93
-10083
-10226.7
-10352.4
-10468.9
-10581.2
-10693
-10806.6
-10923.6
-11045.3
-11172.6
-11306.2
-11446.5
-11593.7
-11747.9
-11909
-12077
-12251.3
-12431.5
-12617.1
-12807.1
-13000.9
-13197.3
-13395.3
-13593.8
-13791.4
-13986.8
-14178.7
-14365.5
-14545.9
-14718.4
-14881.5
-15033.9
-15174.3
-15301.3
-15413.8
-15510.8
-15591.3
-15654.6
-15700
-15727.2
-15735.8
-15725.7
-15697
-15650.1
-15585.3
-15503.2
-15404.7
-15290.6
-15162
-15020
-14866
-14701.3
-14527.2
-14345.3
-14157
-13963.7
-13767
-13568.2
-13368.7
-13169.8
-12972.7
-12778.5
-12588.3
-12403
-12223.3
-12050.1
-11883.8
-11725
-11574
-11431.1
-11296.4
-11169.9
-11051.7
-10941.6
-10839.3
-10744.7
-10657.4
-10577
-10502.9
-10434.7
-10371.6
-10312.9
-10257.8
-10205.1
-10153.6
-10101.6
-10046.7
-9985.62
-9913.2
-9821
-9693.85
-9501.65
-9177.47
-8552.19
-7138.96
-7163.54
-8626.09
-9301.21
-9676.09
-9920.18
-10100.7
-10248.1
-10377.7
-10498.2
-10615
-10731.5
-10850.1
-10972.5
-11100
-11233.5
-11373.6
-11520.8
-11675.4
-11837.3
-12006.7
-12183.2
-12366.5
-12556
-12751.1
-12951
-13154.8
-13361.5
-13569.9
-13778.8
-13986.8
-14192.6
-14394.6
-14591.4
-14781.5
-14963.3
-15135.3
-15296
-15444.1
-15578.1
-15697
-15799.5
-15884.7
-15951.7
-16000
-16029.1
-16038.6
-16028.4
-15998.7
-15949.7
-15881.9
-15795.9
-15692.6
-15572.8
-15437.8
-15288.6
-15126.8
-14953.6
-14770.6
-14579.3
-14381.2
-14177.9
-13970.8
-13761.6
-13551.6
-13342.2
-13134.7
-12930.2
-12729.9
-12534.7
-12345.5
-12163
-11987.9
-11820.6
-11661.5
-11510.9
-11368.9
-11235.7
-11111.1
-10995.1
-10887.4
-10787.8
-10695.8
-10611.1
-10533.1
-10461.3
-10395
-10333.4
-10275.6
-10220.6
-10167
-10113.1
-10056.5
-9993.86
-9920.05
-9826.58
-9698.27
-9505
-9179.81
-8553.58
-7139.42
-7165.03
-8630.58
-9308.75
-9686.76
-9934.1
-10118
-10269
-10402.4
-10527
-10648.1
-10769.2
-10892.7
-11020.4
-11153.5
-11293
-11439.5
-11593.6
-11755.4
-11925
-12102.4
-12287.3
-12479.3
-12677.9
-12882.5
-13092.1
-13305.8
-13522.6
-13741.2
-13960.3
-14178.7
-14394.6
-14606.7
-14813.4
-15013
-15204
-15384.7
-15553.7
-15709.4
-15850.4
-15975.5
-16083.5
-16173.3
-16244.1
-16295.3
-16326.2
-16336.7
-16326.5
-16295.8
-16244.9
-16174.2
-16084.4
-15976.3
-15851
-15709.7
-15553.5
-15384
-15202.5
-15010.7
-14810.1
-14602.4
-14389.1
-14172
-13952.5
-13732.1
-13512.4
-13294.6
-13080
-12869.8
-12664.9
-12466.2
-12274.6
-12090.7
-11915
-11747.9
-11589.8
-11440.7
-11300.7
-11169.9
-11048
-10934.9
-10830.3
-10733.7
-10644.8
-10562.9
-10487.6
-10418.1
-10353.7
-10293.3
-10236
-10180.3
-10124.5
-10066.2
-10002
-9926.82
-9832.1
-9702.64
-9508.31
-9182.13
-8554.96
-7139.88
-7166.47
-8634.93
-9316.05
-9697.1
-9947.58
-10134.8
-10289.2
-10426.3
-10554.8
-10680.1
-10805.7
-10934
-11066.8
-11205.4
-11350.8
-11503.6
-11664.2
-11833.1
-12010.1
-12195.3
-12388.4
-12589
-12796.5
-13010.2
-13229.3
-13452.7
-13679.3
-13907.9
-14137.1
-14365.5
-14591.4
-14813.4
-15029.7
-15238.7
-15438.6
-15628
-15805
-15968.2
-16116.1
-16247.3
-16360.7
-16455.1
-16529.7
-16583.7
-16616.5
-16627.9
-16617.8
-16586.2
-16533.4
-16459.9
-16366.4
-16253.8
-16123.2
-15975.7
-15812.7
-15635.6
-15446.1
-15245.7
-15036.1
-14819
-14596
-14369
-14139.5
-13909
-13679.2
-13451.3
-13226.8
-13006.8
-12792.4
-12584.5
-12384
-12191.5
-12007.6
-11832.7
-11667.1
-11511.1
-11364.5
-11227.6
-11100
-10981.5
-10872
-10770.9
-10677.8
-10592.2
-10513.5
-10440.9
-10373.6
-10310.7
-10251
-10193.3
-10135.6
-10075.7
-10010
-9933.47
-9837.52
-9706.94
-9511.57
-9184.41
-8556.31
-7140.32
-7167.86
-8639.1
-9323.05
-9707.01
-9960.52
-10150.9
-10308.7
-10449.3
-10581.5
-10710.8
-10840.7
-10973.7
-11111.4
-11255.3
-11406.3
-11565.1
-11732.2
-11907.8
-12092.1
-12284.8
-12485.9
-12694.7
-12910.8
-13133.4
-13361.6
-13594.4
-13830.6
-14068.9
-14307.8
-14545.9