/*--------------------------------*- C++ -*----------------------------------*\
  =========                 |
  \\      /  F ield         | OpenFOAM: The Open Source CFD Toolbox
   \\    /   O peration     | Website:  https://openfoam.org
    \\  /    A nd           | Version:  9
     \\/     M anipulation  |
\*---------------------------------------------------------------------------*/
FoamFile
{
    format      ascii;
    class       volScalarField;
    location    "0.1";
    object      T;
}
// * * * * * * * * * * * * * * * * * * * * * * * * * * * * * * * * * * * * * //

dimensions      [0 0 0 1 0 0 0];

internalField   nonuniform List<scalar> 
200000
(
300.348
300.63
300.782
300.88
300.951
301.007
301.052
301.091
301.126
301.157
301.187
301.215
301.243
301.27
301.298
301.326
301.355
301.385
301.415
301.447
301.479
301.512
301.546
301.58
301.615
301.65
301.686
301.721
301.757
301.791
301.826
301.859
301.891
301.922
301.951
301.978
302.003
302.026
302.046
302.064
302.078
302.09
302.098
302.104
302.106
302.104
302.1
302.092
302.081
302.067
302.051
302.031
302.009
301.984
301.957
301.929
301.898
301.866
301.833
301.799
301.764
301.729
301.694
301.658
301.623
301.588
301.554
301.52
301.487
301.456
301.425
301.396
301.368
301.342
301.317
301.293
301.271
301.25
301.23
301.212
301.195
301.179
301.163
301.149
301.135
301.122
301.109
301.095
301.081
301.066
301.05
301.031
301.009
300.982
300.948
300.903
300.843
300.756
300.615
300.343
300.63
301.298
301.708
301.988
302.195
302.359
302.494
302.611
302.714
302.808
302.896
302.981
303.065
303.148
303.231
303.316
303.403
303.492
303.584
303.678
303.775
303.874
303.976
304.079
304.184
304.291
304.397
304.504
304.611
304.716
304.819
304.919
305.016
305.108
305.196
305.278
305.353
305.421
305.482
305.535
305.579
305.614
305.64
305.656
305.662
305.658
305.645
305.621
305.589
305.547
305.496
305.437
305.371
305.297
305.216
305.13
305.038
304.942
304.842
304.739
304.635
304.528
304.422
304.315
304.208
304.103
304
303.899
303.801
303.706
303.614
303.527
303.443
303.363
303.287
303.216
303.149
303.086
303.027
302.971
302.92
302.871
302.826
302.782
302.741
302.701
302.661
302.621
302.579
302.535
302.485
302.429
302.363
302.282
302.182
302.051
301.876
301.629
301.251
300.615
300.782
301.708
302.318
302.754
303.085
303.351
303.572
303.763
303.934
304.09
304.237
304.379
304.518
304.657
304.797
304.939
305.084
305.233
305.387
305.545
305.707
305.874
306.044
306.218
306.395
306.573
306.752
306.932
307.11
307.286
307.459
307.627
307.789
307.945
308.092
308.229
308.356
308.471
308.573
308.661
308.735
308.794
308.837
308.864
308.874
308.868
308.846
308.807
308.752
308.682
308.597
308.498
308.386
308.262
308.127
307.982
307.828
307.667
307.5
307.328
307.152
306.974
306.794
306.615
306.436
306.26
306.087
305.918
305.753
305.593
305.44
305.292
305.152
305.018
304.891
304.771
304.658
304.553
304.454
304.361
304.274
304.193
304.116
304.044
303.975
303.908
303.842
303.775
303.705
303.631
303.55
303.457
303.348
303.217
303.053
302.844
302.567
302.185
301.628
300.755
300.88
301.988
302.754
303.32
303.762
304.12
304.423
304.686
304.922
305.14
305.345
305.544
305.739
305.934
306.131
306.331
306.536
306.747
306.964
307.187
307.416
307.652
307.893
308.138
308.388
308.64
308.893
309.147
309.399
309.648
309.893
310.13
310.36
310.58
310.788
310.982
311.161
311.324
311.469
311.594
311.699
311.782
311.843
311.881
311.896
311.887
311.856
311.801
311.724
311.625
311.505
311.365
311.207
311.031
310.84
310.635
310.418
310.19
309.954
309.71
309.462
309.21
308.956
308.702
308.45
308.201
307.956
307.717
307.484
307.258
307.041
306.832
306.633
306.444
306.265
306.095
305.936
305.786
305.646
305.515
305.393
305.278
305.17
305.068
304.97
304.876
304.783
304.689
304.593
304.49
304.377
304.249
304.099
303.92
303.7
303.421
303.057
302.567
301.876
300.843
300.951
302.195
303.085
303.762
304.299
304.742
305.12
305.452
305.752
306.03
306.294
306.55
306.802
307.055
307.31
307.569
307.836
308.109
308.391
308.681
308.98
309.286
309.6
309.92
310.245
310.573
310.903
311.233
311.562
311.886
312.205
312.515
312.814
313.1
313.371
313.625
313.858
314.071
314.259
314.423
314.559
314.668
314.748
314.797
314.817
314.806
314.765
314.694
314.594
314.465
314.309
314.128
313.922
313.693
313.445
313.178
312.895
312.598
312.29
311.973
311.649
311.321
310.991
310.66
310.332
310.007
309.688
309.376
309.072
308.778
308.495
308.224
307.964
307.717
307.484
307.263
307.055
306.861
306.678
306.508
306.348
306.199
306.058
305.926
305.8
305.678
305.558
305.437
305.313
305.182
305.038
304.877
304.69
304.468
304.196
303.856
303.42
302.843
302.05
300.903
301.007
302.359
303.351
304.12
304.742
305.263
305.711
306.109
306.471
306.809
307.131
307.444
307.754
308.065
308.379
308.701
309.03
309.369
309.718
310.078
310.449
310.829
311.218
311.615
312.018
312.426
312.836
313.246
313.654
314.057
314.453
314.838
315.21
315.565
315.902
316.217
316.508
316.772
317.006
317.209
317.38
317.515
317.614
317.677
317.702
317.689
317.638
317.55
317.426
317.267
317.073
316.848
316.592
316.309
316.001
315.669
315.318
314.95
314.567
314.173
313.771
313.364
312.953
312.543
312.135
311.731
311.335
310.947
310.57
310.205
309.853
309.516
309.194
308.887
308.597
308.323
308.065
307.823
307.596
307.384
307.187
307.001
306.828
306.664
306.508
306.357
306.21
306.063
305.912
305.752
305.58
305.387
305.165
304.903
304.586
304.193
303.697
303.05
302.179
300.947
301.052
302.494
303.572
304.423
305.12
305.711
306.226
306.687
307.109
307.506
307.887
308.258
308.627
308.998
309.374
309.759
310.154
310.561
310.981
311.413
311.858
312.316
312.784
313.262
313.747
314.238
314.731
315.225
315.717
316.202
316.679
317.143
317.591
318.019
318.425
318.805
319.156
319.474
319.757
320.002
320.208
320.371
320.492
320.567
320.598
320.583
320.523
320.417
320.268
320.077
319.844
319.573
319.266
318.925
318.554
318.155
317.733
317.289
316.829
316.355
315.871
315.38
314.885
314.391
313.9
313.414
312.936
312.469
312.015
311.575
311.151
310.745
310.357
309.987
309.637
309.307
308.997
308.705
308.432
308.178
307.939
307.717
307.508
307.312
307.125
306.945
306.77
306.596
306.418
306.231
306.03
305.807
305.553
305.255
304.898
304.461
303.914
303.211
302.278
300.98
301.091
302.611
303.763
304.686
305.452
306.109
306.687
307.209
307.691
308.146
308.585
309.016
309.446
309.879
310.319
310.77
311.233
311.711
312.205
312.714
313.237
313.776
314.327
314.89
315.461
316.04
316.622
317.204
317.783
318.356
318.917
319.465
319.993
320.499
320.978
321.426
321.84
322.216
322.55
322.84
323.083
323.276
323.419
323.509
323.546
323.529
323.459
323.335
323.16
322.935
322.662
322.343
321.981
321.58
321.143
320.673
320.175
319.653
319.11
318.552
317.981
317.402
316.82
316.237
315.658
315.085
314.522
313.971
313.435
312.917
312.417
311.938
311.48
311.044
310.632
310.242
309.876
309.533
309.211
308.911
308.63
308.369
308.123
307.893
307.674
307.464
307.26
307.058
306.854
306.64
306.412
306.16
305.876
305.546
305.154
304.678
304.088
303.339
302.357
301.007
301.126
302.714
303.934
304.922
305.752
306.471
307.109
307.691
308.232
308.746
309.245
309.737
310.229
310.726
311.233
311.753
312.289
312.841
313.412
314.001
314.608
315.232
315.871
316.523
317.187
317.857
318.532
319.208
319.88
320.545
321.197
321.832
322.446
323.034
323.59
324.111
324.592
325.029
325.418
325.755
326.038
326.264
326.43
326.536
326.579
326.561
326.48
326.338
326.136
325.875
325.559
325.19
324.771
324.306
323.799
323.255
322.677
322.071
321.442
320.794
320.131
319.46
318.784
318.108
317.435
316.77
316.116
315.477
314.855
314.253
313.673
313.116
312.584
312.079
311.6
311.148
310.723
310.324
309.951
309.603
309.278
308.974
308.691
308.424
308.172
307.931
307.698
307.468
307.236
306.996
306.741
306.462
306.15
305.79
305.366
304.857
304.23
303.443
302.42
301.028
301.157
302.808
304.09
305.14
306.03
306.809
307.506
308.146
308.746
309.321
309.881
310.435
310.992
311.556
312.133
312.725
313.336
313.968
314.62
315.294
315.989
316.703
317.435
318.183
318.943
319.712
320.486
321.261
322.032
322.794
323.542
324.271
324.976
325.65
326.289
326.887
327.44
327.942
328.389
328.777
329.102
329.362
329.554
329.677
329.728
329.708
329.617
329.455
329.224
328.927
328.565
328.143
327.663
327.131
326.55
325.926
325.264
324.57
323.848
323.105
322.346
321.576
320.801
320.025
319.254
318.491
317.741
317.008
316.294
315.603
314.937
314.299
313.689
313.109
312.559
312.04
311.553
311.095
310.668
310.268
309.896
309.549
309.225
308.92
308.633
308.36
308.096
307.837
307.578
307.311
307.03
306.725
306.386
305.999
305.547
305.007
304.35
303.529
302.473
301.046
301.187
302.896
304.237
305.345
306.294
307.131
307.887
308.585
309.245
309.881
310.504
311.123
311.747
312.381
313.031
313.7
314.39
315.105
315.844
316.608
317.396
318.206
319.037
319.885
320.748
321.621
322.5
323.381
324.257
325.123
325.973
326.802
327.603
328.37
329.097
329.778
330.406
330.978
331.487
331.929
332.301
332.598
332.818
332.958
333.018
332.997
332.895
332.712
332.452
332.115
331.705
331.226
330.682
330.078
329.42
328.712
327.96
327.172
326.353
325.509
324.646
323.772
322.891
322.009
321.133
320.266
319.414
318.58
317.769
316.984
316.227
315.501
314.807
314.148
313.523
312.933
312.379
311.859
311.373
310.92
310.498
310.104
309.737
309.393
309.069
308.761
308.466
308.177
307.889
307.596
307.289
306.958
306.594
306.181
305.703
305.137
304.452
303.603
302.517
301.06
301.215
302.981
304.379
305.544
306.55
307.444
308.258
309.016
309.737
310.435
311.123
311.81
312.504
313.212
313.938
314.688
315.463
316.265
317.096
317.955
318.841
319.753
320.689
321.645
322.617
323.601
324.592
325.584
326.572
327.549
328.508
329.444
330.348
331.213
332.034
332.803
333.513
334.159
334.734
335.235
335.655
335.992
336.242
336.402
336.471
336.449
336.336
336.132
335.84
335.461
335.001
334.462
333.85
333.171
332.429
331.631
330.785
329.897
328.973
328.022
327.05
326.064
325.071
324.077
323.088
322.111
321.149
320.209
319.294
318.408
317.554
316.735
315.952
315.208
314.504
313.839
313.213
312.627
312.079
311.568
311.092
310.649
310.236
309.85
309.488
309.144
308.816
308.496
308.179
307.858
307.525
307.17
306.781
306.344
305.842
305.251
304.541
303.667
302.556
301.073
301.243
303.065
304.518
305.739
306.802
307.754
308.627
309.446
310.229
310.992
311.747
312.504
313.272
314.057
314.864
315.698
316.562
317.458
318.385
319.345
320.337
321.357
322.404
323.474
324.562
325.664
326.774
327.885
328.992
330.087
331.163
332.211
333.225
334.196
335.116
335.979
336.777
337.502
338.149
338.711
339.184
339.563
339.845
340.027
340.107
340.084
339.959
339.733
339.407
338.986
338.471
337.87
337.186
336.425
335.595
334.703
333.756
332.761
331.727
330.662
329.573
328.468
327.355
326.242
325.134
324.038
322.961
321.907
320.881
319.888
318.931
318.012
317.135
316.301
315.511
314.765
314.064
313.407
312.794
312.221
311.689
311.193
310.732
310.301
309.898
309.517
309.153
308.801
308.454
308.106
307.746
307.366
306.953
306.492
305.967
305.354
304.621
303.724
302.59
301.085
301.27
303.148
304.657
305.934
307.055
308.065
308.998
309.879
310.726
311.556
312.381
313.212
314.057
314.923
315.815
316.739
317.697
318.691
319.722
320.789
321.891
323.026
324.191
325.382
326.593
327.821
329.057
330.296
331.529
332.749
333.948
335.117
336.248
337.331
338.358
339.321
340.212
341.022
341.745
342.374
342.903
343.328
343.645
343.85
343.941
343.918
343.781
343.532
343.171
342.703
342.132
341.464
340.703
339.857
338.934
337.941
336.886
335.779
334.627
333.441
332.228
330.997
329.757
328.516
327.281
326.06
324.859
323.684
322.541
321.434
320.366
319.342
318.364
317.434
316.553
315.722
314.94
314.208
313.524
312.887
312.294
311.742
311.23
310.752
310.305
309.884
309.484
309.098
308.721
308.343
307.957
307.551
307.114
306.631
306.083
305.448
304.694
303.776
302.621
301.095
301.298
303.231
304.797
306.131
307.31
308.379
309.374
310.319
311.233
312.133
313.031
313.938
314.864
315.815
316.798
317.816
318.874
319.971
321.111
322.291
323.511
324.767
326.058
327.377
328.719
330.08
331.45
332.824
334.191
335.545
336.875
338.173
339.427
340.63
341.771
342.84
343.83
344.73
345.534
346.234
346.824
347.298
347.652
347.882
347.986
347.964
347.815
347.54
347.143
346.627
345.996
345.257
344.415
343.479
342.457
341.357
340.189
338.962
337.686
336.37
335.026
333.661
332.286
330.91
329.54
328.186
326.854
325.55
324.281
323.053
321.868
320.732
319.647
318.615
317.637
316.715
315.847
315.035
314.277
313.57
312.913
312.302
311.735
311.207
310.714
310.251
309.813
309.392
308.982
308.575
308.161
307.729
307.268
306.762
306.193
305.537
304.763
303.825
302.651
301.105
301.326
303.316
304.939
306.331
307.569
308.701
309.759
310.77
311.753
312.725
313.7
314.688
315.698
316.739
317.816
318.934
320.096
321.304
322.558
323.858
325.202
326.587
328.01
329.465
330.946
332.447
333.96
335.476
336.986
338.481
339.951
341.384
342.771
344.1
345.361
346.544
347.639
348.636
349.526
350.302
350.956
351.483
351.876
352.134
352.252
352.23
352.069
351.769
351.333
350.766
350.072
349.258
348.331
347.3
346.173
344.96
343.672
342.318
340.91
339.458
337.974
336.468
334.95
333.43
331.918
330.422
328.95
327.511
326.109
324.752
323.443
322.188
320.989
319.848
318.768
317.749
316.791
315.894
315.056
314.276
313.55
312.877
312.252
311.671
311.13
310.623
310.144
309.686
309.243
308.804
308.362
307.904
307.419
306.89
306.299
305.623
304.829
303.872
302.678
301.114
301.355
303.403
305.084
306.536
307.836
309.03
310.154
311.233
312.289
313.336
314.39
315.463
316.562
317.697
318.874
320.096
321.368
322.691
324.066
325.492
326.967
328.488
330.051
331.649
333.277
334.927
336.59
338.257
339.918
341.562
343.179
344.756
346.283
347.746
349.135
350.439
351.645
352.744
353.726
354.582
355.305
355.887
356.324
356.61
356.744
356.724
356.55
356.223
355.747
355.126
354.366
353.474
352.457
351.325
350.088
348.756
347.341
345.853
344.306
342.711
341.079
339.423
337.754
336.082
334.419
332.773
331.154
329.57
328.028
326.535
325.095
323.713
322.394
321.139
319.95
318.828
317.774
316.787
315.866
315.007
314.21
313.471
312.785
312.148
311.556
311.002
310.48
309.984
309.505
309.035
308.563
308.078
307.568
307.016
306.403
305.706
304.893
303.917
302.705
301.123
301.385
303.492
305.233
306.747
308.109
309.369
310.561
311.711
312.841
313.968
315.105
316.265
317.458
318.691
319.971
321.304
322.691
324.136
325.638
327.196
328.809
330.473
332.182
333.932
335.714
337.52
339.342
341.168
342.988
344.79
346.562
348.291
349.965
351.57
353.094
354.525
355.849
357.056
358.136
359.077
359.873
360.514
360.996
361.314
361.465
361.446
361.259
360.905
360.388
359.711
358.882
357.907
356.796
355.558
354.205
352.748
351.199
349.571
347.877
346.13
344.343
342.529
340.7
338.869
337.046
335.243
333.469
331.733
330.042
328.405
326.827
325.312
323.865
322.489
321.186
319.956
318.801
317.719
316.708
315.768
314.895
314.085
313.335
312.64
311.994
311.391
310.825
310.288
309.772
309.268
308.765
308.253
307.717
307.141
306.507
305.789
304.956
303.962
302.732
301.132
301.415
303.584
305.387
306.964
308.391
309.718
310.981
312.205
313.412
314.62
315.844
317.096
318.385
319.722
321.111
322.558
324.066
325.638
327.273
328.97
330.728
332.541
334.405
336.313
338.257
340.228
342.215
344.209
346.195
348.163
350.099
351.988
353.817
355.571
357.237
358.802
360.25
361.572
362.753
363.785
364.657
365.362
365.893
366.244
366.412
366.397
366.197
365.815
365.254
364.519
363.617
362.556
361.347
359.998
358.524
356.935
355.246
353.47
351.622
349.716
347.766
345.786
343.79
341.791
339.801
337.832
335.894
333.998
332.152
330.364
328.639
326.985
325.404
323.901
322.477
321.134
319.871
318.689
317.586
316.56
315.606
314.723
313.905
313.148
312.445
311.791
311.178
310.599
310.044
309.506
308.971
308.43
307.868
307.268
306.611
305.872
305.02
304.006
302.759
301.141
301.447
303.678
305.545
307.187
308.681
310.078
311.413
312.714
314.001
315.294
316.608
317.955
319.345
320.789
322.291
323.858
325.492
327.196
328.97
330.813
332.721
334.691
336.716
338.79
340.903
343.046
345.208
347.376
349.537
351.679
353.785
355.842
357.833
359.744
361.56
363.264
364.844
366.285
367.575
368.701
369.654
370.426
371.007
371.394
371.582
371.57
371.357
370.946
370.34
369.545
368.568
367.418
366.105
364.641
363.04
361.314
359.479
357.549
355.539
353.467
351.346
349.193
347.021
344.846
342.681
340.538
338.43
336.366
334.357
332.41
330.533
328.732
327.011
325.374
323.824
322.361
320.987
319.7
318.499
317.382
316.345
315.385
314.496
313.674
312.912
312.204
311.542
310.919
310.324
309.749
309.182
308.61
308.021
307.396
306.716
305.956
305.084
304.051
302.785
301.15
301.479
303.775
305.707
307.416
308.98
310.449
311.858
313.237
314.608
315.989
317.396
318.841
320.337
321.891
323.511
325.202
326.967
328.809
330.728
332.721
334.787
336.919
339.113
341.359
343.648
345.97
348.313
350.664
353.008
355.33
357.615
359.847
362.008
364.082
366.053
367.905
369.621
371.188
372.59
373.816
374.855
375.696
376.332
376.756
376.966
376.957
376.732
376.291
375.638
374.781
373.726
372.483
371.063
369.48
367.746
365.878
363.89
361.799
359.622
357.376
355.078
352.743
350.389
348.031
345.683
343.359
341.072
338.833
336.654
334.541
332.505
330.55
328.683
326.907
325.225
323.638
322.147
320.75
319.448
318.236
317.112
316.071
315.108
314.218
313.395
312.631
311.918
311.248
310.612
309.998
309.397
308.795
308.177
307.527
306.823
306.042
305.149
304.097
302.812
301.159
301.512
303.874
305.874
307.652
309.286
310.829
312.316
313.776
315.232
316.703
318.206
319.753
321.357
323.026
324.767
326.587
328.488
330.473
332.541
334.691
336.919
339.221
341.588
344.013
346.485
348.994
351.525
354.065
356.598
359.108
361.579
363.992
366.33
368.575
370.708
372.712
374.571
376.268
377.789
379.119
380.246
381.16
381.853
382.317
382.549
382.546
382.308
381.836
381.137
380.215
379.079
377.74
376.21
374.502
372.632
370.616
368.47
366.213
363.862
361.436
358.953
356.431
353.887
351.338
348.8
346.288
343.816
341.395
339.038
336.755
334.552
332.438
330.419
328.498
326.678
324.962
323.349
321.839
320.43
319.12
317.905
316.78
315.741
314.781
313.893
313.07
312.304
311.587
310.907
310.255
309.618
308.984
308.337
307.66
306.933
306.129
305.215
304.143
302.84
301.168
301.546
303.976
306.044
307.893
309.6
311.218
312.784
314.327
315.871
317.435
319.037
320.689
322.404
324.191
326.058
328.01
330.051
332.182
334.405
336.716
339.113
341.588
344.135
346.745
349.406
352.107
354.833
357.568
360.297
363.002
365.665
368.266
370.787
373.207
375.509
377.672
379.678
381.511
383.154
384.592
385.812
386.802
387.554
388.061
388.316
388.319
388.068
387.566
386.818
385.83
384.612
383.174
381.531
379.695
377.684
375.516
373.207
370.778
368.247
365.635
362.961
360.245
357.505
354.759
352.025
349.318
346.654
344.046
341.505
339.043
336.669
334.391
332.214
330.143
328.181
326.33
324.591
322.964
321.445
320.033
318.724
317.512
316.393
315.36
314.406
313.523
312.702
311.935
311.21
310.518
309.845
309.178
308.501
307.797
307.044
306.217
305.282
304.191
302.868
301.177
301.58
304.079
306.218
308.138
309.92
311.615
313.262
314.89
316.523
318.183
319.885
321.645
323.474
325.382
327.377
329.465
331.649
333.932
336.313
338.79
341.359
344.013
346.745
349.545
352.4
355.299
358.224
361.161
364.092
366.997
369.858
372.653
375.362
377.964
380.439
382.765
384.924
386.897
388.666
390.216
391.532
392.602
393.416
393.966
394.247
394.256
393.993
393.46
392.663
391.608
390.305
388.767
387.007
385.04
382.885
380.559
378.083
375.477
372.762
369.959
367.089
364.173
361.231
358.282
355.346
352.439
349.577
346.775
344.046
341.401
338.85
336.402
334.062
331.836
329.728
327.739
325.87
324.121
322.489
320.972
319.566
318.265
317.064
315.955
314.933
313.987
313.11
312.292
311.521
310.787
310.077
309.375
308.668
307.936
307.158
306.308
305.351
304.239
302.896
301.186
301.615
304.184
306.395
308.388
310.245
312.018
313.747
315.461
317.187
318.943
320.748
322.617
324.562
326.593
328.719
330.946
333.277
335.714
338.257
340.903
343.648
346.485
349.406
352.4
355.455
358.555
361.686
364.829
367.966
371.077
374.14
377.134
380.036
382.824
385.477
387.971
390.287
392.404
394.304
395.968
397.383
398.535
399.413
400.008
400.316
400.333
400.058
399.495
398.648
397.525
396.136
394.495
392.616
390.515
388.213
385.727
383.08
380.293
377.389
374.39
371.32
368.199
365.051
361.895
358.751
355.639
352.574
349.574
346.651
343.818
341.086
338.463
335.957
333.573
331.314
329.184
327.182
325.308
323.56
321.935
320.428
319.036
317.75
316.565
315.472
314.463
313.528
312.657
311.839
311.062
310.313
309.577
308.839
308.078
307.274
306.4
305.421
304.288
302.925
301.196
301.65
304.291
306.573
308.64
310.573
312.426
314.238
316.04
317.857
319.712
321.621
323.601
325.664
327.821
330.08
332.447
334.927
337.52
340.228
343.046
345.97
348.994
352.107
355.299
358.555
361.862
365.201
368.555
371.902
375.222
378.491
381.688
384.787
387.766
390.6
393.266
395.742
398.007
400.039
401.822
403.338
404.574
405.518
406.161
406.496
406.522
406.236
405.642
404.745
403.553
402.078
400.332
398.333
396.097
393.644
390.996
388.175
385.204
382.108
378.91
375.635
372.306
368.947
365.58
362.225
358.903
355.633
352.43
349.31
346.285
343.368
340.567
337.891
335.345
332.933
330.658
328.519
326.518
324.652
322.917
321.308
319.822
318.45
317.186
316.021
314.947
313.953
313.029
312.163
311.342
310.554
309.783
309.012
308.223
307.392
306.494
305.492
304.338
302.955
301.206
301.686
304.397
306.752
308.893
310.903
312.836
314.731
316.622
318.532
320.486
322.5
324.592
326.774
329.057
331.45
333.96
336.59
339.342
342.215
345.208
348.313
351.525
354.833
358.224
361.686
365.201
368.752
372.318
375.879
379.411
382.89
386.292
389.591
392.763
395.782
398.623
401.262
403.676
405.844
407.747
409.367
410.689
411.7
412.392
412.757
412.791
412.495
411.87
410.924
409.663
408.101
406.25
404.129
401.756
399.152
396.34
393.343
390.186
386.895
383.496
380.014
376.474
372.901
369.32
365.751
362.217
358.737
355.329
352.008
348.79
345.685
342.704
339.855
337.144
334.576
332.154
329.878
327.747
325.76
323.913
322.202
320.62
319.161
317.817
316.579
315.438
314.384
313.406
312.491
311.626
310.798
309.991
309.188
308.369
307.512
306.589
305.564
304.388
302.985
301.216
301.721
304.504
306.932
309.147
311.233
313.246
315.225
317.204
319.208
321.261
323.381
325.584
327.885
330.296
332.824
335.476
338.257
341.168
344.209
347.376
350.664
354.065
357.568
361.161
364.829
368.555
372.318
376.099
379.875
383.62
387.311
390.92
394.422
397.789
400.994
404.011
406.814
409.38
411.686
413.711
415.436
416.845
417.926
418.667
419.062
419.107
418.801
418.147
417.151
415.821
414.172
412.216
409.973
407.463
404.707
401.729
398.555
395.212
391.725
388.123
384.432
380.68
376.892
373.095
369.31
365.562
361.871
358.256
354.733
351.318
348.024
344.861
341.838
338.961
336.236
333.665
331.25
328.989
326.88
324.92
323.104
321.426
319.878
318.453
317.142
315.935
314.82
313.786
312.822
311.912
311.044
310.201
309.365
308.516
307.632
306.684
305.636
304.439
303.015
301.226
301.757
304.611
307.11
309.399
311.562
313.654
315.717
317.783
319.88
322.032
324.257
326.572
328.992
331.529
334.191
336.986
339.918
342.988
346.195
349.537
353.008
356.598
360.297
364.092
367.966
371.902
375.879
379.875
383.865
387.825
391.728
395.545
399.249
402.812
406.204
409.398
412.368
415.086
417.53
419.678
421.509
423.007
424.157
424.95
425.376
425.432
425.117
424.434
423.389
421.992
420.255
418.196
415.831
413.184
410.276
407.133
403.783
400.252
396.57
392.764
388.865
384.9
380.897
376.883
372.883
368.92
365.017
361.194
357.469
353.857
350.373
347.027
343.829
340.786
337.903
335.183
332.628
330.235
328.004
325.931
324.01
322.235
320.599
319.093
317.708
316.433
315.257
314.168
313.154
312.2
311.291
310.412
309.543
308.664
307.753
306.78
305.709
304.49
303.045
301.236
301.791
304.716
307.286
309.648
311.886
314.057
316.202
318.356
320.545
322.794
325.123
327.549
330.087
332.749
335.545
338.481
341.562
344.79
348.163
351.679
355.33
359.108
363.002
366.997
371.077
375.222
379.411
383.62
387.825
391.999
396.112
400.137
404.043
407.801
411.38
414.751
417.886
420.757
423.34
425.61
427.548
429.135
430.356
431.2
431.658
431.726
431.403
430.692
429.599
428.136
426.314
424.151
421.666
418.883
415.824
412.518
408.992
405.276
401.398
397.391
393.284
389.108
384.89
380.661
376.445
372.269
368.156
364.126
360.198
356.391
352.717
349.189
345.817
342.608
339.567
336.699
334.003
331.48
329.127
326.94
324.915
323.043
321.318
319.731
318.272
316.93
315.693
314.55
313.486
312.487
311.538
310.622
309.72
308.812
307.874
306.876
305.782
304.541
303.075
301.246
301.826
304.819
307.459
309.893
312.205
314.453
316.679
318.917
321.197
323.542
325.973
328.508
331.163
333.948
336.875
339.951
343.179
346.562
350.099
353.785
357.615
361.579
365.665
369.858
374.14
378.491
382.89
387.311
391.728
396.112
400.435
404.665
408.771
412.722
416.487
420.033
423.332
426.355
429.076
431.468
433.512
435.188
436.48
437.375
437.866
437.947
437.617
436.879
435.741
434.212
432.306
430.042
427.44
424.522
421.316
417.848
414.149
410.249
406.18
401.973
397.662
393.276
388.847
384.404
379.976
375.588
371.266
367.031
362.904
358.902
355.041
351.332
347.787
344.414
341.217
338.201
335.367
332.714
330.24
327.941
325.812
323.845
322.032
320.365
318.832
317.423
316.126
314.928
313.815
312.772
311.783
310.83
309.896
308.959
307.993
306.971
305.854
304.591
303.105
301.256
301.859
304.919
307.627
310.13
312.515
314.838
317.143
319.465
321.832
324.271
326.802
329.444
332.211
335.117
338.173
341.384
344.756
348.291
351.988
355.842
359.847
363.992
368.266
372.653
377.134
381.688
386.292
390.92
395.545
400.137
404.665
409.097
413.4
417.541
421.488
425.207
428.668
431.841
434.697
437.211
439.36
441.124
442.486
443.433
443.957
444.051
443.716
442.953
441.77
440.178
438.191
435.829
433.111
430.063
426.712
423.087
419.218
415.139
410.881
406.479
401.966
397.375
392.738
388.086
383.449
378.854
374.327
369.891
365.567
361.374
357.328
353.443
349.728
346.192
342.842
339.681
336.711
333.93
331.337
328.928
326.696
324.635
322.735
320.989
319.384
317.91
316.553
315.301
314.139
313.052
312.024
311.036
310.07
309.103
308.111
307.064
305.925
304.641
303.135
301.265
301.891
305.016
307.789
310.36
312.814
315.21
317.591
319.993
322.446
324.976
327.603
330.348
333.225
336.248
339.427
342.771
346.283
349.965
353.817
357.833
362.008
366.33
370.787
375.362
380.036
384.787
389.591
394.422
399.249
404.043
408.771
413.4
417.895
422.222
426.347
430.235
433.855
437.174
440.163
442.796
445.048
446.899
448.33
449.329
449.886
449.995
449.655
448.869
447.643
445.991
443.926
441.468
438.639
435.465
431.973
428.195
424.162
419.908
415.468
410.876
406.167
401.376
396.537
391.681
386.841
382.043
377.316
372.684
368.169
363.79
359.564
355.505
351.624
347.931
344.431
341.128
338.025
335.119
332.41
329.893
327.561
325.407
323.423
321.599
319.924
318.385
316.971
315.666
314.456
313.327
312.259
311.237
310.239
309.244
308.226
307.156
305.994
304.69
303.163
301.275
301.922
305.108
307.945
310.58
313.1
315.565
318.019
320.499
323.034
325.65
328.37
331.213
334.196
337.331
340.63
344.1
347.746
351.57
355.571
359.744
364.082
368.575
373.207
377.964
382.824
387.766
392.763
397.789
402.812
407.801
412.722
417.541
422.222
426.729
431.026
435.078
438.851
442.313
445.432
448.18
450.533
452.469
453.968
455.018
455.608
455.732
455.388
454.581
453.316
451.606
449.467
446.918
443.982
440.687
437.06
433.135
428.944
424.522
419.905
415.13
410.232
405.249
400.214
395.162
390.125
385.132
380.212
375.39
370.689
366.13
361.73
357.504
353.462
349.616
345.971
342.531
339.299
336.272
333.451
330.828
328.399
326.157
324.091
322.191
320.448
318.847
317.376
316.02
314.764
313.593
312.488
311.432
310.404
309.381
308.338
307.244
306.061
304.737
303.191
301.284
301.951
305.196
308.092
310.788
313.371
315.902
318.425
320.978
323.59
326.289
329.097
332.034
335.116
338.358
341.771
345.361
349.135
353.094
357.237
361.56
366.053
370.708
375.509
380.439
385.477
390.6
395.782
400.994
406.204
411.38
416.487
421.488
426.347
431.026
435.489
439.699
443.619
447.217
450.461
453.321
455.771
457.789
459.355
460.455
461.078
461.217
460.872
460.044
458.743
456.979
454.769
452.134
449.098
445.687
441.933
437.867
433.525
428.943
424.158
419.208
414.131
408.963
403.741
398.501
393.275
388.096
382.991
377.987
373.109
368.378
363.81
359.423
355.228
351.235
347.451
343.879
340.523
337.381
334.451
331.728
329.206
326.877
324.732
322.761
320.951
319.291
317.765
316.36
315.061
313.849
312.709
311.62
310.562
309.513
308.446
307.33
306.126
304.782
303.218
301.293
301.978
305.278
308.229
310.982
313.625
316.217
318.805
321.426
324.111
326.887
329.778
332.803
335.979
339.321
342.84
346.544
350.439
354.525
358.802
363.264
367.905
372.712
377.672
382.765
387.971
393.266
398.623
404.011
409.398
414.751
420.033
425.207
430.235
435.078
439.699
444.058
448.119
451.847
455.21
458.177
460.72
462.817
464.447
465.595
466.25
466.406
466.059
465.215
463.88
462.066
459.791
457.076
453.945
450.426
446.551
442.353
437.869
433.136
428.193
423.078
417.83
412.488
407.09
401.672
396.268
390.911
385.631
380.455
375.409
370.513
365.788
361.248
356.907
352.775
348.858
345.162
341.688
338.435
335.402
332.584
329.973
327.563
325.343
323.303
321.431
319.714
318.136
316.685
315.343
314.093
312.919
311.799
310.714
309.639
308.549
307.411
306.188
304.826
303.244
301.302
302.003
305.353
308.356
311.161
313.858
316.508
319.156
321.84
324.592
327.44
330.406
333.513
336.777
340.212
343.83
347.639
351.645
355.849
360.25
364.844
369.621
374.571
379.678
384.924
390.287
395.742
401.262
406.814
412.368
417.886
423.332
428.668
433.855
438.851
443.619
448.119
452.312
456.164
459.639
462.706
465.338
467.51
469.201
470.396
471.083
471.254
470.908
470.049
468.684
466.825
464.49
461.701
458.482
454.863
450.876
446.556
441.94
437.067
431.975
426.706
421.299
415.795
410.232
404.647
399.077
393.554
388.11
382.773
377.569
372.52
367.646
362.964
358.485
354.222
350.181
346.368
342.783
339.427
336.298
333.389
330.696
328.209
325.919
323.814
321.883
320.112
318.486
316.99
315.609
314.323
313.116
311.968
310.856
309.757
308.645
307.488
306.246
304.866
303.268
301.31
302.026
305.421
308.471
311.324
314.071
316.772
319.474
322.216
325.029
327.942
330.978
334.159
337.502
341.022
344.73
348.636