/*--------------------------------*- C++ -*----------------------------------*\
  =========                 |
  \\      /  F ield         | OpenFOAM: The Open Source CFD Toolbox
   \\    /   O peration     | Website:  https://openfoam.org
    \\  /    A nd           | Version:  9
     \\/     M anipulation  |
\*---------------------------------------------------------------------------*/
FoamFile
{
    format      ascii;
    class       volScalarField;
    location    "0.4";
    object      gradTx;
}
// * * * * * * * * * * * * * * * * * * * * * * * * * * * * * * * * * * * * * //

dimensions      [0 -1 0 1 0 0 0];

internalField   nonuniform List<scalar> 
200000
(
5115.57
2389.69
1466.21
1058.6
837.487
699.75
605.876
537.901
486.507
446.367
414.202
387.873
365.922
347.315
331.292
317.281
304.838
293.614
283.326
273.744
264.676
255.961
247.464
239.071
230.682
222.217
213.605
204.788
195.721
186.365
176.693
166.686
156.333
145.629
134.578
123.191
111.484
99.4785
87.2029
74.6892
61.9741
49.0981
36.1048
23.0407
9.9541
-3.10501
-16.0858
-28.9372
-41.6082
-54.0489
-66.2108
-78.0473
-89.5142
-100.57
-111.178
-121.304
-130.919
-139.996
-148.518
-156.468
-163.838
-170.623
-176.827
-182.456
-187.524
-192.053
-196.067
-199.599
-202.687
-205.376
-207.717
-209.767
-211.59
-213.258
-214.849
-216.451
-218.159
-220.081
-222.334
-225.052
-228.387
-232.511
-237.627
-243.974
-251.839
-261.577
-273.631
-288.574
-307.164
-330.434
-359.839
-397.513
-446.729
-512.812
-605.074
-741.477
-961.521
-1368.34
-2291.29
-5016.91
10312.6
6049.68
4096.46
3072.79
2468.47
2076.8
1804.65
1605.53
1454.06
1335.29
1239.85
1161.58
1096.23
1040.77
992.97
951.137
913.963
880.411
849.643
820.973
793.83
767.736
742.287
717.139
692.002
666.628
640.81
614.376
587.186
559.128
530.121
500.105
469.048
436.939
403.788
369.627
334.504
298.486
261.656
224.112
185.962
147.33
108.345
69.1468
29.8812
-9.30225
-48.251
-86.8115
-124.831
-162.16
-198.652
-234.168
-268.575
-301.749
-333.579
-363.962
-392.809
-420.047
-445.615
-469.469
-491.581
-511.939
-530.55
-547.438
-562.643
-576.226
-588.265
-598.857
-608.115
-616.174
-623.187
-629.325
-634.781
-639.768
-644.522
-649.303
-654.399
-660.127
-666.844
-674.947
-684.888
-697.184
-712.436
-731.355
-754.796
-783.806
-819.7
-864.169
-919.439
-988.532
-1075.68
-1187.05
-1331.99
-1525.44
-1792.75
-2180.42
-2781.54
-3802.84
-5754.46
-10016.6
13554.9
8777.15
6308.68
4888.86
3996.92
3395.89
2968.08
2650.25
2406.03
2213.21
2057.51
1929.35
1822.05
1730.78
1651.97
1582.91
1521.46
1465.93
1414.97
1367.43
1322.4
1279.07
1236.79
1194.99
1153.19
1110.97
1068
1024
978.718
931.988
883.667
833.66
781.911
728.404
673.157
616.222
557.68
497.644
436.252
373.666
310.07
245.667
180.675
115.327
49.865
-15.461
-80.3964
-144.685
-208.073
-270.309
-331.151
-390.364
-447.73
-503.04
-556.108
-606.764
-654.859
-700.27
-742.896
-782.663
-819.525
-853.461
-884.483
-912.629
-937.968
-960.6
-980.655
-998.292
-1013.7
-1027.11
-1038.77
-1048.96
-1058.01
-1066.26
-1074.12
-1082
-1090.4
-1099.83
-1110.89
-1124.22
-1140.58
-1160.82
-1185.93
-1217.06
-1255.62
-1303.31
-1362.26
-1435.21
-1525.71
-1638.57
-1780.47
-1960.95
-2194.28
-2502.64
-2922.4
-3516.75
-4403.37
-5819.22
-8285.05
-13061.5
15875.3
10892.1
8159.59
6495.19
5400.44
4637.47
4081.27
3661.08
3334.34
3074.11
2862.63
2687.7
2540.68
2415.25
2306.67
2211.3
2126.3
2049.38
1978.67
1912.63
1850
1789.69
1730.77
1672.48
1614.14
1555.19
1495.17
1433.66
1370.36
1305
1237.41
1167.43
1095.01
1020.12
942.784
863.074
781.11
697.047
611.079
523.436
434.374
344.178
253.155
161.63
69.9427
-21.5555
-112.508
-202.556
-291.344
-378.519
-463.741
-546.684
-627.037
-704.512
-778.845
-849.799
-917.166
-980.771
-1040.47
-1096.17
-1147.79
-1195.32
-1238.75
-1278.16
-1313.63
-1345.3
-1373.35
-1398.01
-1419.55
-1438.27
-1454.52
-1468.71
-1481.28
-1492.72
-1503.58
-1514.45
-1526.01
-1538.97
-1554.16
-1572.48
-1594.96
-1622.77
-1657.26
-1700.03
-1752.98
-1818.41
-1899.2
-1998.97
-2122.47
-2275.98
-2468.12
-2711.07
-3022.57
-3429.51
-3974.42
-4728.05
-5815.35
-7474.19
-10203.1
-15184.3
17686.3
12607.4
9731.08
7914.61
6679.71
5795.38
5136.92
4631.39
4233.43
3913.52
3651.65
3433.8
3249.87
3092.36
2955.6
2835.17
2727.57
2630
2540.15
2456.11
2376.28
2299.3
2224.02
2149.46
2074.77
1999.24
1922.28
1843.38
1762.13
1678.22
1591.4
1501.5
1408.43
1312.18
1212.76
1110.28
1004.88
896.78
786.221
673.498
558.944
442.925
325.837
208.1
90.1503
-27.5597
-144.571
-260.421
-374.65
-486.806
-596.451
-703.164
-806.546
-906.224
-1001.86
-1093.15
-1179.82
-1261.64
-1338.45
-1410.09
-1476.49
-1537.62
-1593.47
-1644.14
-1689.73
-1730.43
-1766.46
-1798.12
-1825.73
-1849.71
-1870.5
-1888.6
-1904.6
-1919.11
-1932.84
-1946.54
-1961.06
-1977.33
-1996.37
-2019.34
-2047.53
-2082.42
-2125.69
-2179.33
-2245.7
-2327.64
-2428.66
-2553.17
-2706.84
-2897.15
-3134.16
-3431.86
-3810.2
-4298.7
-4942.65
-5814.96
-7040.28
-8849.6
-11721.2
-16797.7
19181.2
14051.6
11091.6
9177.99
7846.06
6871.86
6133.48
5558.31
5100.24
4728.57
4422.04
4165.51
3947.83
3760.66
3597.56
3453.5
3324.45
3207.15
3098.89
2997.44
2900.9
2807.66
2716.34
2625.78
2534.97
2443.06
2349.31
2253.14
2154.06
2051.67
1945.68
1835.91
1722.24
1604.64
1483.15
1357.9
1229.07
1096.92
961.749
823.921
683.844
541.967
398.774
254.781
110.522
-33.4479
-176.567
-318.27
-457.993
-595.183
-729.303
-859.837
-986.296
-1108.23
-1225.21
-1336.87
-1442.88
-1542.96
-1636.9
-1724.52
-1805.72
-1880.45
-1948.74
-2010.66
-2066.37
-2116.08
-2160.06
-2198.67
-2232.32
-2261.49
-2286.73
-2308.66
-2327.97
-2345.41
-2361.84
-2378.16
-2395.41
-2414.69
-2437.25
-2464.46
-2497.86
-2539.22
-2590.53
-2654.13
-2732.78
-2829.78
-2949.18
-3096.01
-3276.69
-3499.55
-3775.68
-4120.2
-4554.29
-5108.64
-5829.28
-6788.78
-8109
-10013.8
-12968
-18094.8
20462.9
15303.6
12291.7
10314.1
8914.11
7873.39
7073.04
6441.75
5933.68
5517.8
5172.32
4881.41
4633.3
4419.02
4231.6
4065.5
3916.27
3780.25
3654.42
3536.24
3423.54
3314.5
3207.54
3101.3
2994.64
2886.55
2776.21
2662.93
2546.12
2425.36
2300.3
2170.71
2036.47
1897.56
1754.02
1606.01
1453.75
1297.53
1137.72
974.762
809.127
641.352
472.01
301.712
131.092
-39.1935
-208.479
-376.093
-541.369
-703.652
-862.306
-1016.72
-1166.31
-1310.55
-1448.93
-1581.01
-1706.41
-1824.79
-1935.89
-2039.52
-2135.54
-2223.9
-2304.62
-2377.8
-2443.61
-2502.31
-2554.21
-2599.73
-2639.35
-2673.64
-2703.24
-2728.88
-2751.35
-2771.56
-2790.49
-2809.21
-2828.9
-2850.86
-2876.54
-2907.51
-2945.57
-2992.7
-3051.21
-3123.74
-3213.39
-3323.85
-3459.61
-3626.2
-3830.58
-4081.68
-4391.24
-4775.01
-5254.74
-5861.41
-6640.79
-7664.14
-9050.29
-11017.6
-14022.5
-19178.4
21591.8
16413.8
13368.2
11346.8
9898.27
8807.98
7959.64
7283.41
6734.12
6280.91
5901.81
5580.7
5305.45
5066.67
4856.99
4670.52
4502.45
4348.83
4206.33
4072.15
3943.92
3819.6
3697.41
3575.86
3453.64
3329.64
3202.91
3072.68
2938.31
2799.28
2655.23
2505.91
2351.16
2190.97
2025.41
1854.64
1678.94
1498.65
1314.19
1126.07
934.837
741.12
545.582
348.927
151.89
-44.7705
-240.283
-433.872
-624.766
-812.207
-995.458
-1173.81
-1346.6
-1513.2
-1673.04
-1825.6
-1970.43
-2107.15
-2235.46
-2355.12
-2465.98
-2567.99
-2661.15
-2745.59
-2821.49
-2889.14
-2948.93
-3001.3
-3046.83
-3086.15
-3120.01
-3149.22
-3174.71
-3197.5
-3218.7
-3239.54
-3261.37
-3285.65
-3314
-3348.22
-3390.29
-3442.46
-3507.25
-3587.6
-3686.89
-3809.15
-3959.2
-4142.94
-4367.72
-4642.88
-4980.51
-5396.68
-5913.26
-6561.07
-7385.2
-8455.45
-9888.04
-11897.5
-14935.1
-20109.2
22606.3
17415.9
14347.3
12295.2
10811.3
9683.75
8798.14
8086
7502.91
7018.36
6610.5
6263.11
5963.86
5703.12
5473.26
5268.1
5082.58
4912.48
4754.26
4604.88
4461.78
4322.71
4185.77
4049.3
3911.85
3772.2
3629.32
3482.34
3330.55
3173.4
3010.47
2841.48
2666.29
2484.87
2297.31
2103.81
1904.68
1700.3
1491.17
1277.86
1061
841.303
619.52
396.455
172.943
-50.1524
-271.956
-491.585
-708.163
-920.829
-1128.75
-1331.11
-1527.16
-1716.18
-1897.53
-2070.62
-2234.94
-2390.05
-2535.59
-2671.32
-2797.05
-2912.72
-3018.33
-3114.02
-3199.99
-3276.58
-3344.2
-3403.38
-3454.73
-3498.99
-3536.98
-3569.62
-3597.95
-3623.12
-3646.36
-3669.04
-3692.66
-3718.86
-3749.42
-3786.32
-3831.75
-3888.15
-3958.28
-4045.3
-4152.86
-4285.22
-4447.48
-4645.82
-4887.86
-5183.16
-5544.01
-5986.56
-6532.58
-7212.51
-8070.68
-9175.53
-10641.3
-12679.9
-15739.5
-20925.4
23532.3
18333.3
15248.5
13174.2
11664.2
10508.2
9593.52
8852.64
8241.89
7731.18
7298.86
6928.74
6608.42
6328.14
6080.1
5857.91
5656.32
5470.9
5297.91
5134.14
4976.84
4823.62
4672.42
4521.42
4369.1
4214.11
4055.33
3891.8
3722.78
3547.64
3365.95
3177.4
2981.84
2779.24
2569.72
2353.51
2130.95
1902.49
1668.67
1430.15
1187.64
941.917
693.844
444.319
194.277
-55.3126
-303.469
-549.203
-791.532
-1029.49
-1262.14
-1488.58
-1707.95
-1919.46
-2122.38
-2316.06
-2499.91
-2673.44
-2836.27
-2988.1
-3128.72
-3258.06
-3376.12
-3483.05
-3579.08
-3664.57
-3739.98
-3805.89
-3862.99
-3912.08
-3954.07
-3989.99
-4020.99
-4048.3
-4073.32
-4097.54
-4122.61
-4150.3
-4182.57
-4221.58
-4269.67
-4329.5
-4404
-4496.54
-4610.97
-4751.78
-4924.26
-5134.78
-5391.14
-5703.03
-6082.81
-6546.56
-7115.88
-7820.75
-8704.78
-9835.32
-11325.1
-13384.2
-16459
-21653.1
24388
19182.7
16086.1
13995.5
12465.8
11288
10350.5
9586.56
8953.18
8420.69
7967.64
7577.96
7239.25
6941.69
6677.36
6439.74
6223.42
6023.82
5837.02
5659.68
5488.88
5322.09
5157.12
4992.05
4825.21
4655.19
4480.77
4300.93
4114.86
3921.9
3721.57
3513.56
3297.72
3074.01
2842.59
2603.69
2357.73
2105.19
1846.68
1582.94
1314.74
1042.97
768.565
492.535
215.914
-60.2247
-334.791
-606.69
-874.831
-1138.14
-1395.59
-1646.16
-1888.92
-2122.98
-2347.53
-2561.84
-2765.27
-2957.27
-3137.42
-3305.37
-3460.9
-3603.92
-3734.44
-3852.6
-3958.66
-4053.01
-4136.16
-4208.73
-4271.49
-4325.3
-4371.16
-4410.2
-4443.66
-4472.91
-4499.44
-4524.88
-4551.02
-4579.77
-4613.26
-4653.77
-4703.84
-4766.28
-4844.19
-4941.12
-5061.09
-5208.74
-5389.54
-5610
-5878
-6203.32
-6598.28
-7078.88
-7666.45
-8390.57
-9294.21
-10443.9
-11951.3
-14025.1
-17110.7
-22310.3
25186.4
19976.6
16871.2
14768.4
13223.6
12028.9
11073.3
10290.8
9638.94
9088.32
8617.76
8211.32
7856.63
7543.85
7264.99
7013.45
6783.69
6571
6371.35
6181.24
5997.64
5817.88
5639.66
5460.94
5279.97
5095.24
4905.46
4709.55
4506.63
4296.02
4077.21
3849.86
3613.83
3369.09
3115.82
2854.29
2584.94
2308.34
2025.16
1736.18
1442.28
1144.44
843.682
541.111
237.87
-64.8618
-365.887
-664.002
-958.009
-1246.73
-1529.02
-1803.79
-2069.98
-2326.64
-2572.87
-2807.86
-3030.91
-3241.42
-3438.91
-3623.01
-3793.47
-3950.18
-4093.15
-4222.53
-4338.59
-4441.76
-4532.59
-4611.75
-4680.06
-4738.48
-4788.08
-4830.07
-4865.8
-4896.74
-4924.51
-4950.85
-4977.69
-5007.08
-5041.27
-5082.7
-5134.06
-5198.3
-5278.69
-5378.91
-5503.13
-5656.13
-5843.5
-6071.83
-6349.08
-6685.03
-7091.96
-7585.74
-8187.46
-8926.33
-9844.81
-11008.7
-12529
-14613.6
-17706.8
-22910.5
25937.4
20724.2
17612.2
15500
13943.6
12735.6
11765.7
10968.3
10301.2
9735.54
9250.22
8829.45
8460.91
8134.78
7843.02
7578.97
7336.99
7112.27
6900.67
6698.59
6502.86
6310.72
6119.76
5927.85
5733.14
5534.04
5329.19
5117.45
4897.9
4669.82
4432.68
4186.13
3930.01
3664.34
3389.29
3105.19
2812.51
2511.88
2204.03
1889.83
1570.24
1246.31
919.183
590.049
260.161
-69.1974
-396.719
-721.089
-1041
-1355.18
-1662.36
-1961.36
-2251.04
-2530.34
-2798.28
-3053.99
-3296.7
-3525.75
-3740.6
-3940.86
-4126.26
-4296.65
-4452.06
-4592.64
-4718.67
-4830.62
-4929.06
-5014.73
-5088.51
-5151.41
-5204.6
-5249.37
-5287.17
-5319.57
-5348.3
-5375.23
-5402.39
-5431.98
-5466.38
-5508.16
-5560.14
-5625.41
-5707.37
-5809.85
-5937.11
-6094.07
-6286.38
-6520.73
-6805.1
-7149.26
-7565.43
-8069.34
-8681.87
-9431.9
-10361.5
-11536
-13065.8
-15158.2
-18256.9
-23463.5
26648.5
21432.7
18315.7
16196.2
14630.7
13412.3
12430.9
11621.4
10941.9
10363.7
9865.98
9432.99
9052.49
8714.68
8411.5
8136.23
7883.16
7647.42
7424.75
7211.44
7004.26
6800.33
6597.14
6392.48
6184.42
5971.28
5751.66
5524.36
5288.41
5043.06
4787.76
4522.15
4246.09
3959.58
3662.85
3356.24
3040.29
2715.68
2383.21
2043.81
1698.54
1348.54
995.041
639.341
282.794
-73.2054
-427.241
-777.891
-1123.74
-1463.39
-1795.5
-2118.77
-2431.96
-2733.92
-3023.61
-3300.06
-3562.44
-3810.04
-4042.28
-4258.71
-4459.04
-4643.11
-4810.94
-4962.69
-5098.66
-5219.32
-5325.32
-5417.42
-5496.56
-5563.82
-5620.46
-5667.84
-5707.5
-5741.13
-5770.55
-5797.75
-5824.87
-5854.24
-5888.36
-5929.92
-5981.88
-6047.44
-6130.14
-6233.89
-6363.08
-6522.71
-6718.52
-6957.23
-7246.85
-7597.12
-8020.21
-8531.71
-9152.32
-9910.69
-10848.6
-12030.9
-13567.6
-15665.6
-18768.4
-23977.1
27325.5
22107.7
18986.7
16861.6
15289
14062.3
13071.7
12252.4
11562.7
10974.1
10465.9
10022.5
9631.75
9283.74
8970.47
8685.17
8422.08
8176.24
7943.32
7719.53
7501.54
7286.38
7071.47
6854.5
6633.47
6406.66
6172.58
5929.98
5677.87
5415.46
5142.18
4857.68
4561.8
4254.59
3936.28
3607.27
3268.13
2919.6
2562.56
2198.02
1827.11
1451.07
1071.22
688.968
305.775
-76.8599
-457.409
-834.339
-1206.13
-1571.27
-1928.31
-2275.85
-2612.56
-2937.21
-3248.65
-3545.85
-3827.92
-4094.07
-4343.69
-4576.28
-4791.53
-4989.27
-5169.5
-5332.37
-5478.23
-5607.56
-5721.04
-5819.48
-5903.87
-5975.38
-6035.32
-6085.14
-6126.47
-6161.09
-6190.94
-6218.1
-6244.84
-6273.58
-6306.95
-6347.77
-6399.09
-6464.25
-6546.88
-6651.01
-6781.11
-6942.25
-7140.25
-7381.85
-7675.08
-8029.67
-8457.72
-8974.7
-9601.18
-10365.6
-11309.4
-12497.4
-14039.1
-16141.2
-19246.9
-24457.1
27972.8
22753.4
19629.4
17499.8
15921.6
14688.3
13690.3
12863
12165
11567.8
11050.9
10598.7
10199
9842.13
9519.97
9225.72
8953.57
8698.5
8456.11
8222.53
7994.34
7768.51
7542.36
7313.53
7079.94
6839.79
6591.55
6333.94
6065.92
5786.67
5495.62
5192.41
4876.88
4549.11
4209.35
3858.04
3495.82
3123.47
2741.94
2352.33
1955.84
1553.81
1147.66
738.906
329.103
-80.1356
-487.171
-890.359
-1288.06
-1678.68
-2060.64
-2432.44
-2792.67
-3139.98
-3473.17
-3791.11
-4092.85
-4377.54
-4644.52
-4893.26
-5123.41
-5334.78
-5527.37
-5701.33
-5857.02
-5994.96
-6115.83
-6220.53
-6310.08
-6385.71
-6448.79
-6500.89
-6543.69
-6579.09
-6609.1
-6635.93
-6661.95
-6689.68
-6721.87
-6761.44
-6811.56
-6875.67
-6957.5
-7061.18
-7191.25
-7352.87
-7551.89
-7795.1
-8090.54
-8447.9
-8879.25
-9399.97
-10030.5
-10799.1
-11747.2
-12939.1
-14484.3
-16589.3
-19697
-24908.2
28593.9
23373.3
20246.9
18113.8
16531.2
15292.6
14288.7
13455
12750.1
12145.7
11621.5
11161.8
10754.5
10390
10060
9757.74
9477.43
9213.93
8962.79
8720.08
8482.28
8246.31
8009.41
7769.14
7523.36
7270.24
7008.17
6735.83
6452.16
6156.31
5847.7
5525.98
5190.99
4842.82
4481.76
4108.3
3723.12
3327.07
2921.16
2506.58
2084.61
1656.68
1224.31
789.118
352.772
-83.0083
-516.473
-945.867
-1369.44
-1785.48
-2192.32
-2588.35
-2972.05
-3342
-3696.89
-4035.55
-4356.92
-4660.12
-4944.43
-5209.28
-5454.29
-5679.25
-5884.14
-6069.14
-6234.6
-6381.07
-6509.27
-6620.12
-6714.72
-6794.34
-6860.45
-6914.65
-6958.75
-6994.7
-7024.64
-7050.86
-7075.83
-7102.19
-7132.78
-7170.64
-7219.04
-7281.51
-7361.88
-7464.35
-7593.57
-7754.73
-7953.75
-8197.45
-8493.86
-8852.69
-9285.94
-9808.95
-10442.1
-11213.4
-12164.2
-13358.8
-14906.4
-17013.3
-20122.3
-25334.2
29191.6
23970
20841.7
18705.9
17119.8
15877
14868.3
14029.4
13318.9
12708.7
12178.2
11712.2
11298.5
10927.2
10590.4
10281.1
9993.39
9722.2
9463
9211.76
8964.92
8719.32
8472.12
8220.84
7963.27
7697.52
7421.94
7135.18
6836.13
6523.94
6198.01
5857.98
5503.73
5135.36
4753.19
4357.74
3949.76
3530.16
3100.02
2660.59
2213.26
1759.55
1301.08
839.558
376.771
-85.4545
-545.257
-1000.77
-1450.13
-1891.52
-2323.16
-2743.34
-3150.45
-3542.98
-3919.52
-4278.82
-4619.77
-4941.43
-5243.01
-5523.91
-5783.72
-6022.21
-6239.35
-6435.32
-6610.48
-6765.4
-6900.84
-7017.75
-7117.29
-7200.79
-7269.77
-7325.92
-7371.13
-7407.45
-7437.08
-7462.43
-7486.06
-7510.72
-7539.33
-7575.06
-7621.25
-7681.53
-7759.84
-7860.44
-7988.05
-8147.95
-8346.07
-8589.28
-8885.62
-9244.8
-9678.79
-10202.9
-10837.3
-11610.3
-12562.7
-13758.9
-15307.9
-17416
-20525.8
-25738.2
29768
24545.6
21415.8
19277.9
17689
16442.9
15430.4
14587.2
13872.2
13257.1
12721.6
12250.2
11830.9
11453.9
11111
10795.4
10501.1
10222.9
9956.29
9697.11
9441.76
9187.01
8929.97
8668.09
8399.12
8121.09
7832.33
7531.45
7217.31
6889.05
6546.06
6187.98
5814.69
5426.33
5023.25
4606.02
4175.43
3732.45
3278.25
2814.15
2341.63
1862.3
1377.87
890.17
401.082
-87.4521
-573.462
-1054.97
-1530
-1996.62
-2452.95
-2897.18
-3327.6
-3742.6
-4140.7
-4520.56
-4881.01
-5221.04
-5539.81
-5836.68
-6111.21
-6363.16
-6592.47
-6799.33
-6984.11
-7147.39
-7289.97
-7412.85
-7517.22
-7604.47
-7676.19
-7734.15
-7780.31
-7816.79
-7845.91
-7870.14
-7892.16
-7914.81
-7941.11
-7974.31
-8017.86
-8075.48
-8151.18
-8249.32
-8374.68
-8532.58
-8729.03
-8970.91
-9266.3
-9624.89
-10058.6
-10582.8
-11217.6
-11991.1
-12944.2
-14141.1
-15690.9
-17799.6
-20909.9
-26122.5
30324.6
25101.7
21970.7
19831.1
18240
16991.3
15975.8
15129.2
14410.5
13791.4
13251.7
12775.9
12351.9
11969.9
11621.7
11300.5
11000.3
10715.7
10442.2
10175.6
9912.24
9648.81
9382.37
9110.3
8830.3
8540.35
8238.75
7924.07
7595.15
7251.1
6891.32
6515.44
6123.38
5715.28
5291.53
4852.75
4399.77
3933.64
3455.59
2967.03
2469.52
1964.76
1454.58
940.888
425.684
-88.9803
-601.024
-1108.35
-1608.89
-2100.59
-2581.46
-3049.6
-3503.18
-3940.52
-4360.05
-4760.35
-5140.18
-5498.47
-5834.32
-6147.07
-6436.22
-6701.52
-6942.92
-7160.57
-7354.87
-7526.42
-7676.05
-7804.78
-7913.87
-8004.75
-8079.09
-8138.71
-8185.66
-8222.14
-8250.54
-8273.45
-8293.62
-8313.98
-8337.66
-8367.99
-8408.52
-8463.05
-8535.67
-8630.82
-8753.36
-8908.65
-9102.75
-9342.59
-9636.26
-9993.46
-10426.2
-10949.6
-11583.9
-12357.2
-13310.3
-14507.2
-16057.2
-18166
-21276.5
-26489.2
30862.7
25639.3
22507.5
20366.6
18773.8
17523
16505.1
15655.8
14934.2
14311.9
13768.7
13289.1
12861.1
12474.9
12122.1
11796
11490.4
11200
10920.1
10646.6
10375.7
10104.1
9828.67
9546.8
9256.15
8954.65
8640.55
8312.4
7969.01
7609.48
7233.21
6839.83
6429.28
6001.71
5557.56
5097.49
4622.4
4133.38
3631.74
3118.97
2596.72
2066.78
1531.08
991.635
450.548
-90.0202
-627.876
-1160.82
-1686.65
-2203.22
-2708.44
-3200.29
-3676.87
-4136.37
-4577.16
-4997.75
-5396.8
-5773.2
-6126.01
-6454.5
-6758.15
-7036.69
-7290.04
-7518.38
-7722.1
-7901.81
-8058.38
-8192.86
-8306.56
-8400.96
-8477.79
-8538.94
-8586.53
-8622.84
-8650.36
-8671.75
-8689.85
-8707.68
-8728.46
-8755.62
-8792.79
-8843.86
-8913
-9004.72
-9123.94
-9276.09
-9467.28
-9704.47
-9995.78
-10350.9
-10781.9
-11303.9
-11937.1
-12709.5
-13661.9
-14858.4
-16408
-18516.7
-21627.1
-26839.7
31383.1
26159.4
23026.9
20885
19290.9
18038.5
17018.8
16167.4
15443.4
14818.5
14272.5
13789.8
13358.5
12968.6
12611.8
12281.3
11970.9
11675.2
11389.5
11109.6
10831.6
10552.1
10268.1
9976.89
9675.96
9363.27
9037.03
8695.74
8338.22
7963.55
7571.1
7160.55
6731.81
6285.09
5820.85
5339.81
4842.9
4331.29
3806.36
3269.69
2722.99
2168.17
1607.24
1042.33
475.639
-90.5547
-653.95
-1212.23
-1763.1
-2304.3
-2833.62
-3348.95
-3848.29
-4329.74
-4791.59
-5232.25
-5650.35
-6044.69
-6414.28
-6758.35
-7076.35
-7367.99
-7633.17
-7872.06
-8085.07
-8272.83
-8436.22
-8576.34
-8694.53
-8792.34
-8871.54
-8934.1
-8982.2
-9018.21
-9044.69
-9064.38
-9080.22
-9095.31
-9112.97
-9136.7
-9170.23
-9217.52
-9282.83
-9370.73
-9486.22
-9634.78
-9822.58
-10056.6
-10345
-10697.6
-11126.3
-11646.3
-12277.8
-13048.7
-14000
-15195.7
-16744.6
-18852.8
-21962.8
-27175.3
31886.4
26662.4
23529.5
21386.8
19791.8
18538.2
17517
16664.1
15938.2
15311.3
14762.9
14277.8
13843.6
13450.5
13090.3
12755.9
12441.2
12140.7
11849.6
11563.7
11279.1
10992.2
10700.1
10399.8
10089
9765.45
9427.42
9073.37
8702.06
8312.59
7904.32
7476.93
7030.36
6564.84
6080.86
5579.18
5060.81
4526.96
3979.1
3418.86
2848.08
2268.72
1682.91
1092.87
500.917
-90.569
-679.177
-1262.48
-1838.08
-2403.59
-2956.71
-3495.24
-4017.06
-4520.2
-5002.85
-5463.36
-5900.27
-6312.33
-6698.5
-7057.96
-7390.14
-7694.7
-7971.55
-8220.86
-8443.02
-8638.7
-8808.79
-8954.43
-9077
-9178.1
-9259.56
-9323.41
-9371.91
-9407.49
-9432.79
-9450.64
-9464.05
-9476.24
-9490.57
-9510.66
-9540.31
-9583.56
-9644.74
-9728.51
-9839.92
-9984.53
-10168.5
-10399
-10684.1
-11033.6
-11459.5
-11977.1
-12606.5
-13375.6
-14325.4
-15519.8
-17067.7
-19175.2
-22284.8
-27497.1
32372.8
27148.7
24015.4
21872.2
20276.5
19022.1
17999.9
17145.7
16418.4
15789.9
15239.7
14752.5
14316
13920.3
13557
13219.2
12900.6
12595.7
12299.8
12008.3
11717.4
11423.5
11123.6
10814.7
10494.3
10160.4
9810.94
9444.48
9059.77
8655.87
8232.15
7788.3
7324.28
6840.34
6337.01
5815.1
5275.65
4719.97
4149.57
3566.18
2971.7
2368.21
1757.92
1143.15
526.335
-90.0505
-703.484
-1311.43
-1911.38
-2500.85
-3077.43
-3638.81
-4182.79
-4707.3
-5210.46
-5690.52
-6145.98
-6575.5
-6978
-7352.63
-7698.77
-8016.07
-8304.41
-8563.96
-8795.13
-8998.58
-9175.24
-9326.28
-9453.12
-9557.4
-9641.01
-9706.05
-9754.83
-9789.87
-9813.88
-9829.77
-9840.64
-9849.76
-9860.62
-9876.89
-9902.46
-9941.46
-9998.29
-10077.7
-10184.7
-10325.1
-10505
-10731.5
-11013
-11359.1
-11781.9
-12296.6
-12923.5
-13690.5
-14638.4
-15831.3
-17378.1
-19484.7
-22593.7
-27805.6
32842.6
27618.4
24484.8
22341.3
20745.1
19490
18467.1
17612
16883.7
16254
15702.4
15213.6
14775.1
14377.2
14011.4
13670.5
13348.5
13039.6
12739.1
12442.4
12145.7
11845.2
11537.9
11220.7
10891.2
10547.2
10186.7
9808.25
9410.52
8992.59
8553.84
8093.94
7612.88
7110.94
6588.7
6046.98
5486.92
4909.85
4317.36
3711.27
3093.57
2466.4
1832.09
1193.07
551.843
-88.9894
-726.801
-1358.95
-1982.82
-2595.82
-3195.45
-3779.29
-4345.04
-4890.57
-5413.87
-5913.16
-6386.84
-6833.54
-7252.1
-7641.63
-8001.5
-8331.3
-8630.94
-8900.54
-9140.54
-9351.61
-9534.69
-9691
-9821.98
-9929.34
-10015
-10081.1
-10130.1
-10164.5
-10187.1
-10201
-10209.2
-10215.2
-10222.4
-10234.7
-10256.1
-10290.7
-10343
-10417.8
-10520.2
-10656.1
-10831.7
-11054
-11331.5
-11673.9
-12093.3
-12605
-13229.1
-13993.7
-14939.6
-16130.7
-17676.1
-19781.6
-22890
-28101.6
33295.5
28071.2
24937.5
22793.8
21197.3
19941.9
18918.5
18062.9
17333.8
16703.2
16150.6
15660.4
15220.4
14820.6
14452.6
14109.1
13783.9
13471.5
13166.8
12865.3
12563
12256.4
11942
11616.9
11278.7
10925
10553.9
10163.8
9753.47
9321.94
8868.58
8393.08
7895.44
7375.98
6835.29
6274.26
5694.07
5096.11
4482.06
3853.79
3213.37
2563.06
1905.26
1242.49
577.382
-87.3787
-749.057
-1404.91
-2052.2
-2688.26
-3310.46
-3916.3
-4503.39
-5069.5
-5612.56
-6130.69
-6622.23
-7085.75
-7520.06
-7924.2
-8297.51
-8639.58
-8950.26
-9229.71
-9478.35
-9696.87
-9886.23
-10047.7
-10182.7
-10293
-10380.6
-10447.8
-10496.8
-10530.5
-10551.7
-10563.4
-10568.9
-10571.6
-10575.2
-10583.5
-10600.5
-10630.6
-10678.2
-10748.3
-10846
-10977.2
-11148.3
-11366.3
-11639.6
-11978.1
-12393.9
-12902.3
-13523.4
-14285.4
-15229
-16418.3
-17962.1
-20066.5
-23174.1
-28385.3
33731.4
28507.1
25373.4
23229.5
21632.9
20377.4
19353.7
18497.7
17768.2
17137
16583.6
16092.4
15651.2
15249.8
14879.9
14534.1
14206.2
13890.5
13581.9
13276
12968.6
12656
12335
12002.4
11655.8
11292.8
10911.5
10510.3
10087.8
9643.07
9175.56
8684.94
8171.22
7634.74
7076.13
6496.33
5896.55
5278.27
4643.21
3993.34
3330.79
2657.92
1977.22
1291.3
602.891
-85.2143
-770.181
-1449.16
-2119.32
-2777.88
-3422.13
-4049.46
-4657.39
-5243.6
-5805.95
-6342.49
-6851.49
-7331.45
-7781.13
-8199.55
-8586
-8940.03
-9261.52
-9550.58
-9807.65
-10033.4
-10228.9
-10395.3
-10534.2
-10647.4
-10736.9
-10805
-10854.1
-10887
-10906.7
-10916.2
-10919
-10918.4
-10918.2
-10922.4
-10935.1
-10960.5
-11003.4
-11068.7
-11161.6
-11288.1
-11454.4
-11667.9
-11936.9
-12271.4
-12683.4
-13188.4
-13806.4
-14565.6
-15506.8
-16694.1
-18236.3
-20339.5
-23446.3
-28657.1
34149.9
28925.6
25791.9
23648.1
22051.5
20795.9
19772.1
18916
18186.3
17554.7
17000.7
16508.8
16066.6
15664
15292.5
14944.7
14614.3
14295.7
13983.6
13673.5
13361.3
13043.2
12715.9
12376.2
12021.6
11649.8
11258.7
10846.7
10412.5
9955.09
9473.95
8968.72
8439.45
7886.5
7310.54
6712.55
6093.79
5455.8
4800.37
4129.52
3445.5
2750.72
2047.77
1339.35
628.303
-82.4953
-790.104
-1491.58
-2183.98
-2864.43
-3530.12
-4178.36
-4806.57
-5412.36
-5993.49
-6547.94
-7073.93
-7569.9
-8034.55
-8466.87
-8866.11
-9231.8
-9563.8
-9862.21
-10127.5
-10360.3
-10561.7
-10733
-10875.7
-10991.6
-11082.9
-11151.8
-11200.9
-11233.1
-11251.2
-11258.5
-11258.5
-11254.6
-11250.7
-11250.8
-11259
-11279.8
-11318
-11378.4
-11466.5
-11588.1
-11749.7
-11958.6
-12223.3
-12553.6
-12961.8
-13463.1
-14078
-14834.3
-15773.1
-16958.2
-18498.8
-20600.7
-23706.6
-28917
34550.6
29326.3
26192.6
24048.9
22452.4
21196.9
20173.2
19317.1
18587.3
17955.6
17401.3
16908.9
16466
16062.3
15689.5
15340
15007.4
14686.1
14370.8
14056.9
13740.3
13417
13083.7
12737.3
12375.1
11994.8
11594.4
11172.1
10726.7
10257.1
9762.87
9243.59
8699.35
8130.53
7537.84
6922.29
6285.21
5628.18
4953.06
4261.94
3557.15
2841.18
2116.7
1386.52
653.546
-79.2242
-808.761
-1532.02
-2245.97
-2947.63
-3634.11
-4302.61
-4950.48
-5575.24
-6174.58
-6746.41
-7288.88
-7800.37
-8279.55
-8725.35
-9137
-9514
-9856.19
-10163.7
-10436.9
-10676.6
-10883.7
-11059.7
-11206
-11324.6
-11417.6
-11487.3
-11536.4
-11567.7
-11584.3
-11589.4
-11586.6
-11579.4
-11571.8
-11567.8
-11571.6
-11587.8
-11621.2
-11676.8
-11760
-11876.8
-12033.6
-12238
-12498.2
-12824.4
-13228.6
-13726.4
-14338
-15091.4
-16027.6
-17210.7
-18749.5
-20850.2
-23955.2
-29165.2
34932.8
29708.6
26575.1
24431.5
22835.2
21579.9
20556.4
19700.4
18970.7
18339
17784.6
17291.9
16848.4
16444
16070
15719
15384.5
15060.8
14742.6
14425.2
14104.4
13776.3
13437.4
13084.7
12715.3
12327
11917.6
11485.6
11029.4
10548.3
10041.5
9508.72
8950.12
8366.07
7757.32
7124.91
6470.21
5794.87
5100.81
4390.19
3665.39
2929.01
2183.79
1432.64
678.544
-75.4068
-826.086
-1570.35
-2305.09
-3027.21
-3733.75
-4421.8
-5088.65
-5731.73
-6348.65
-6937.26
-7495.64
-8022.13
-8515.35
-8974.17
-9397.8
-9785.73
-10137.8
-10454
-10734.9
-10981.2
-11193.9
-11374.4
-11524.2
-11645.3
-11739.9
-11810.4
-11859.4
-11889.9
-11904.9
-11907.9
-11902.3
-11891.9
-11880.6
-11872.6
-11872.1
-11883.8
-11912.4
-11963.2
-12041.6
-12153.6
-12305.7
-12505.5
-12761.4
-13083.4
-13483.7
-13977.9
-14586.2
-15336.7
-16270.4
-17451.3
-18988.4
-21087.7
-24191.9
-29401.4
35296.1
30071.9
26938.5
24795.2
23199.1
21944
20920.9
20065.2
19335.7
18704.1
18149.7
17656.8
17213
16808
16433.1
16080.8
15744.7
15418.8
15098
14777.4
14452.7
14120.1
13776
13417.3
13041.2
12645.3
12227.5
11786.1
11319.8
10827.6
10308.8
9763.27
9190.97
8592.38
7968.27
7319.74
6648.2
5955.34
5243.14
4513.83
3769.88
3013.94
2248.84
1477.57
703.218
-71.0524
-842.02
-1606.45
-2361.14
-3102.91
-3828.71
-4535.55
-5220.63
-5881.3
-6515.12
-7119.86
-7693.54
-8234.45
-8741.15
-9212.5
-9647.66
-10046.1
-10407.6
-10732.3
-11020.6
-11273.2
-11491.3
-11676.1
-11829.3
-11952.8
-12049
-12120.1
-12169
-12198.7
-12212.2
-12213.1
-12204.8
-12191.2
-12176.3
-12164.3
-12159.7
-12166.9
-12190.9
-12237
-12310.7
-12417.9
-12565.5
-12760.7
-13012.3
-13330.2
-13726.7
-14217.3
-14822.4
-15570
-16501.1
-17679.9
-19215.3
-21313.3
-24416.6
-29625.7
35639.7
30415.6
27282.3
25139.2
23543.4
22288.8
21265.9
20410.6
19681.4
19050.1
18495.8
18003
17558.9
17153.5
16777.8
16424.5
16086.9
15759.2
15435.9
15112.4
14784.2
14447.4
14098.5
13734.2
13351.8
12948.7
12523
12072.9
11596.9
11094.2
10564.2
10006.4
9421.11
8808.71
8170.02
7506.15
6818.58
6109.04
5379.57
4632.47
3870.26
3095.68
2311.63
1521.17
727.487
-66.1737
-856.506
-1640.19
-2413.93
-3174.47
-3918.66
-4643.45
-5345.96
-6023.45
-6673.42
-7293.58
-7881.89
-8436.6
-8956.21
-9439.54
-9885.74
-10294.2
-10664.8
-10997.6
-11292.9
-11551.7
-11774.8
-11963.7
-12120.2
-12246.1
-12343.7
-12415.5
-12464.3
-12493.1
-12505.2
-12504
-12493.1
-12476.5
-12458.1
-12442.3
-12433.5
-12436.4
-12456
-12497.5
-12566.6
-12669.3
-12812.3
-13003.2
-13250.5
-13564.4
-13957.1
-14444.2
-15046.1
-15790.9
-16719.6
-17896.3
-19430
-21526.7
-24629.2
-29837.8
35962.9
30738.9
27605.8
25463
23867.5
22613.3
21590.8
20735.9
20007.2
19376.2
18822.2
18329.4
17885.3
17479.5
17103.3
16749.1
16410.3
16080.8
15755.4
15429.2
15097.8
14757.2
14403.8
14034.3
13646
13236.3
12803.2
12344.8
11859.8
11347.3
10806.5
10237.3
9639.76
9014.32
8361.85
7683.5
6980.76
6255.45
5509.64
4745.69
3966.18
3173.93
2371.92
1563.28
751.266
-60.7872
-869.492
-1671.45
-2463.27
-3241.63
-4003.29
-4745.13
-5464.19
-6157.67
-6822.99
-7457.81
-8060.04
-8627.86
-9159.75
-9654.49
-10111.2
-10529.3
-10908.5
-11248.9
-11551
-11815.5
-12043.5
-12236.5
-12396
-12524.1
-12623.1
-12695.5
-12744.2
-12772.3
-12783
-12779.8
-12766.4
-12746.8
-12725.1
-12705.6
-12692.9
-12691.7
-12707
-12744.1
-12808.7
-12907
-13045.7
-13232.3
-13475.5
-13785.5
-14174.6
-14658.3
-15257.2
-15999.2
-16925.5
-18100.1
-19632.2
-21727.7
-24829.3
-30037.6
36265
31041.2
27908.3
25765.7
24170.7
22916.8
21894.8
21040.4
20312.1
19681.5
19127.8
18635.3
18191.2
17785.3
17408.6
17053.7
16713.8
16382.9
16055.6
15727
15392.6
15048.5
14690.9
14316.7
13922.9
13507.1
13067
12601
12107.6
11585.9
11035.1
10455.2
9846.15
9208.5
8543.09
7851.14
7134.18
6394.04
5632.87
4853.07
4057.31
3248.44
2429.51
1603.75
774.469
-54.9124
-880.931
-1700.11
-2508.98
-3304.15
-4082.29
-4840.22
-5574.9
-6283.47
-6963.29
-7611.96
-8227.33
-8807.55
-9351.05
-9856.57
-10323.2
-10750.3
-11137.7
-11485.4
-11793.9
-12063.9
-12296.6
-12493.2
-12655.6
-12785.9
-12886.2
-12959.3
-13007.9
-13035.2
-13044.5
-13039.5
-13023.7
-13001.4
-12976.5
-12953.5
-12937.1
-12931.9
-12943.1
-12976
-13036.4
-13130.4
-13265
-13447.5
-13686.8
-13993.1
-14378.7
-14859.2
-15455.1
-16194.5
-17118.5
-18291.2
-19821.7
-21916
-25016.8
-30224.6
36545.4
31321.7
28189
26046.8
24452.1
23198.6
22177.2
21323.2
20595.5
19965.3
19412
18919.7
18475.8
18069.8
17692.8
17337.3
16996.5
16664.3
16335.4
16004.6
15667.6
15320.3
14959
14580.4
14181.6
13760.1
13313.7
12840.6
12339.4
11809.1
11249.2
10659.3
10039.5
9390.53
8713.1
8008.49
7278.26
6524.31
5748.81
4954.24
4143.29
3318.9
2484.19
1642.42
797.009
-48.5727
-890.783
-1726.07
-2550.9
-3361.79
-4155.37
-4928.37
-5677.68
-6400.39
-7093.8
-7755.45
-8383.16
-8975
-9529.39
-10045
-10521
-10956.6
-11351.7
-11706.3
-12020.8
-12295.9
-12532.9
-12733.1
-12898.3
-13030.5
-13132.1
-13205.8
-13254.3
-13281
-13289
-13282.2
-13264.3
-13239.3
-13211.5
-13185.2
-13165.2
-13156.3
-13163.6
-13192.6
-13249
-13339.1
-13469.7
-13648.4
-13884
-14186.8
-14569.1