/*--------------------------------*- C++ -*----------------------------------*\
  =========                 |
  \\      /  F ield         | OpenFOAM: The Open Source CFD Toolbox
   \\    /   O peration     | Website:  https://openfoam.org
    \\  /    A nd           | Version:  9
     \\/     M anipulation  |
\*---------------------------------------------------------------------------*/
FoamFile
{
    format      ascii;
    class       volScalarField;
    location    "0.4";
    object      gradTy;
}
// * * * * * * * * * * * * * * * * * * * * * * * * * * * * * * * * * * * * * //

dimensions      [0 -1 0 1 0 0 0];

internalField   nonuniform List<scalar> 
200000
(
5115.57
10312.6
13554.9
15875.3
17686.3
19181.2
20462.9
21591.8
22606.3
23532.3
24388
25186.4
25937.4
26648.5
27325.5
27972.8
28593.9
29191.6
29768
30324.6
30862.7
31383.1
31886.4
32372.8
32842.6
33295.5
33731.4
34149.9
34550.6
34932.8
35296.1
35639.7
35962.9
36265
36545.4
36803.4
37038.3
37249.4
37436.2
37598.3
37735
37846.2
37931.5
37990.6
38023.6
38030.5
38011.2
37966.1
37895.5
37799.7
37679.3
37534.8
37367.1
37176.7
36964.7
36732
36479.5
36208.3
35919.4
35614.1
35293.5
34958.7
34610.9
34251.3
33881
33501.2
33112.8
32716.8
32314.3
31906
31492.8
31075.1
30653.7
30228.8
29800.6
29369.4
28934.9
28496.8
28054.7
27607.6
27154.7
26694.4
26225
25744.3
25249.7
24737.7
24204.3
23644.3
23051.5
22417.7
21732.6
20982.2
20148
19203.5
18109.7
16805.7
15187.9
13062.6
10016.7
5016.84
2389.69
6049.68
8777.15
10892.1
12607.4
14051.6
15303.6
16413.8
17415.9
18333.3
19182.7
19976.6
20724.2
21432.7
22107.7
22753.4
23373.3
23970
24545.6
25101.7
25639.3
26159.4
26662.4
27148.7
27618.4
28071.2
28507.1
28925.6
29326.3
29708.6
30071.9
30415.6
30738.9
31041.2
31321.7
31579.8
31814.7
32026
32212.9
32375
32511.9
32623.1
32708.4
32767.7
32800.7
32807.6
32788.4
32743.3
32672.6
32576.8
32456.4
32311.9
32144
31953.7
31741.6
31508.7
31256.1
30984.8
30695.8
30390.4
30069.6
29734.7
29386.8
29027.1
28656.6
28276.6
27888.1
27492
27089.4
26681
26267.7
25850
25428.5
25003.6
24575.5
24144.3
23709.9
23272
22830.2
22383.5
21931
21471.3
21002.7
20523
20029.6
19519.2
18987.9
18430.6
17841.2
17212
16533.1
15791.4
14969.7
14043.9
12979.8
11726.5
10204.6
8284.7
5753.67
2290.94
1466.21
4096.46
6308.68
8159.59
9731.08
11091.6
12291.7
13368.2
14347.3
15248.5
16086.1
16871.2
17612.2
18315.7
18986.7
19629.4
20246.9
20841.7
21415.8
21970.7
22507.5
23026.9
23529.5
24015.4
24484.8
24937.5
25373.4
25791.9
26192.6
26575.1
26938.5
27282.3
27605.8
27908.3
28189
28447.3
28682.5
28893.9
29081
29243.3
29380.4
29491.7
29577.2
29636.6
29669.7
29676.6
29657.4
29612.4
29541.7
29445.9
29325.3
29180.8
29012.8
28822.3
28610.1
28377
28124.2
27852.7
27563.5
27257.8
26936.8
26601.6
26253.4
25893.4
25522.7
25142.4
24753.6
24357.3
23954.5
23545.9
23132.4
22714.6
22293
21868.1
21440
21009
20574.9
20137.4
19696.1
19250.1
18798.5
18340
17872.9
17395.2
16904.3
16397
15869.7
15317.5
14734.9
14114.5
13447.4
12722.1
11923.4
11031.5
10019.3
8849.81
7471.68
5816
3800.33
1367.41
1058.6
3072.79
4888.86
6495.19
7914.61
9177.99
10314.1
11346.8
12295.2
13174.2
13995.5
14768.4
15500
16196.2
16861.6
17499.8
18113.8
18705.9
19277.9
19831.1
20366.6
20885
21386.8
21872.2
22341.3
22793.8
23229.5
23648.1
24048.9
24431.5
24795.2
25139.2
25463
25765.7
26046.8
26305.3
26540.8
26752.6
26940
27102.5
27239.8
27351.4
27437
27496.6
27529.8
27536.8
27517.7
27472.7
27402
27306.1
27185.5
27040.8
26872.7
26682
26469.5
26236.2
25983.1
25711.3
25421.7
25115.7
24794.3
24458.7
24110.2
23749.8
23378.7
22998
22608.8
22212.2
21809
21400.2
20986.4
20568.4
20146.8
19721.8
19293.9
18863.1
18429.4
17992.4
17551.9
17107
16656.8
16200
15735.2
15260.3
14772.9
14270.2
13748.6
13203.8
12630.6
12022.6
11372
10668.9
9901.11
9053.01
8105.05
7032.76
5806.84
4395.85
2776.46
959.731
837.487
2468.47
3996.92
5400.44
6679.71
7846.06
8914.11
9898.27
10811.3
11664.2
12465.8
13223.6
13943.6
14630.7
15289
15921.6
16531.2
17119.8
17689
18240
18773.8
19290.9
19791.8
20276.5
20745.1
21197.3
21632.9
22051.5
22452.4
22835.2
23199.1
23543.4
23867.5
24170.7
24452.1
24711
24946.9
25159
25346.8
25509.7
25647.2
25759.1
25845
25904.8
25938.2
25945.3
25926.3
25881.3
25810.6
25714.6
25593.9
25449.1
25280.8
25089.8
24877
24643.4
24390
24117.7
23827.8
23521.3
23199.4
22863.4
22514.3
22153.4
21781.8
21400.6
21011
20613.9
20210.4
19801.2
19387.1
18968.9
18547.2
18122.2
17694.5
17264
16830.8
16394.6
15955
15511.5
15063.1
14608.6
14146.6
13675.3
13192.5
12695.5
12181.1
11645.5
11084.1
10491.3
9860.53
9183.76
8451.41
7652.04
6772.28
5797.18
4711.55
3503.53
2171.91
738.546
699.75
2076.8
3395.89
4637.47
5795.38
6871.86
7873.39
8807.98
9683.75
10508.2
11288
12028.9
12735.6
13412.3
14062.3
14688.3
15292.6
15877
16442.9
16991.3
17523
18038.5
18538.2
19022.1
19490
19941.9
20377.4
20795.9
21196.9
21579.9
21944
22288.8
22613.3
22916.8
23198.6
23458.1
23694.4
23906.9
24095.1
24258.4
24396.4
24508.6
24594.8
24654.8
24688.4
24695.7
24676.8
24631.8
24561.1
24465.1
24344.3
24199.2
24030.7
23839.5
23626.4
23392.4
23138.5
22865.8
22575.4
22268.4
21946
21609.3
21259.7
20898.2
20526
20144.3
19754.1
19356.5
18952.5
18542.9
18128.6
17710.2
17288.3
16863.4
16435.9
16005.8
15573.2
15137.9
14699.7
14257.8
13811.5
13359.7
12901.2
12434.2
11956.8
11466.5
10960.6
10435.6
9887.56
9311.85
8703.02
8054.77
7359.87
6610.23
5797.17
4912.09
3947.99
2902.08
1779.99
600.724
605.876
1804.65
2968.08
4081.27
5136.92
6133.48
7073.04
7959.64
8798.14
9593.52
10350.5
11073.3
11765.7
12430.9
13071.7
13690.3
14288.7
14868.3
15430.4
15975.8
16505.1
17018.8
17517
17999.9
18467.1
18918.5
19353.7
19772.1
20173.2
20556.4
20920.9
21265.9
21590.8
21894.8
22177.2
22437.1
22673.9
22887
23075.6
23239.4
23377.8
23490.4
23576.9
23637.2
23671.1
23678.6
23659.8
23614.9
23544.2
23448.1
23327.1
23181.9
23013.2
22821.6
22608.2
22373.8
22119.5
21846.2
21555.3
21247.7
20924.7
20587.4
20237.1
19875
19502.2
19119.9
18729.2
18331
17926.5
17516.5
17101.9
16683.3
16261.3
15836.5
15409.2
14979.7
14547.8
14113.7
13676.9
13236.9
12793.1
12344.5
11889.9
11427.8
10956.4
10473.7
9977.05
9463.65
8930.12
8372.61
7786.79
7167.78
6510.31
5808.81
5057.88
4252.89
3391.21
2473.85
1507.59
506.767
537.901
1605.53
2650.25
3661.08
4631.39
5558.31
6441.75
7283.41
8086
8852.64
9586.56
10290.8
10968.3
11621.4
12252.4
12863
13455
14029.4
14587.2
15129.2
15655.8
16167.4
16664.1
17145.7
17612
18062.9
18497.7
18916
19317.1
19700.4
20065.2
20410.6
20735.9
21040.4
21323.2
21583.7
21821.1
22034.6
22223.8
22388.1
22526.9
22640
22726.9
22787.5
22821.6
22829.3
22810.7
22765.8
22695.2
22599
22478
22332.6
22163.6
21971.8
21758
21523.1
21268.3
20994.6
20703.1
20394.9
20071.3
19733.4
19382.5
19019.7
18646.2
18263.3
17872
17473.3
17068.3
16657.9
16243
15824.2
15402.2
14977.6
14550.7
14121.7
13690.8
13258
12822.8
12385.1
11944
11498.9
11048.6
10591.8
10127
9652.36
9165.67
8664.49
8146.05
7607.21
7044.57
6454.44
5833.02
5176.6
4481.92
3746.71
2970.52
2155.67
1308.26
438.72
486.507
1454.06
2406.03
3334.34
4233.43
5100.24
5933.68
6734.12
7502.91
8241.89
8953.18
9638.94
10301.2
10941.9
11562.7
12165
12750.1
13318.9
13872.2
14410.5
14934.2
15443.4
15938.2
16418.4
16883.7
17333.8
17768.2
18186.3
18587.3
18970.7
19335.7
19681.4
20007.2
20312.1
20595.5
20856.4
21094.3
21308.4
21498.2
21662.9
21802.2
21915.7
22003
22064
22098.4
22106.4
22087.9
22043.2
21972.6
21876.4
21755.3
21609.7
21440.5
21248.4
21034.3
20799.1
20543.8
20269.6
19977.5
19668.8
19344.5
19006
18654.5
18291
17917
17533.5
17141.6
16742.4
16337
15926.2
15511.1
15092.2
14670.3
14245.9
13819.5
13391.3
12961.5
12530
12096.8
11661.5
11223.5
10782.1
10336.4
9885.34
9427.48
8961.26
8484.86
7996.21
7493.02
6972.79
6432.86
5870.49
5282.98
4667.88
4023.3
3348.31
2643.43
1911.2
1156.63
387.277
446.367
1335.29
2213.21
3074.11
3913.52
4728.57
5517.8
6280.91
7018.36
7731.18
8420.69
9088.32
9735.54
10363.7
10974.1
11567.8
12145.7
12708.7
13257.1
13791.4
14311.9
14818.5
15311.3
15789.9
16254
16703.2
17137
17554.7
17955.6
18339
18704.1
19050.1
19376.2
19681.5
19965.3
20226.8
20465.2
20679.8
20870.1
21035.3
21175.1
21289.1
21376.8
21438.1
21472.9
21481.1
21462.8
21418.3
21347.7
21251.6
21130.4
20984.7
20815.3
20623
20408.6
20173
19917.3
19642.7
19350.1
19040.9
18716.1
18377
18024.9
17660.9
17286.3
16902.2
16509.9
16110.3
15704.5
15293.5
14878.2
14459.3
14037.6
13613.6
13187.8
12760.5
12332
11902.2
11471.1
11038.3
10603.6
10166.3
9725.49
9280.34
8829.67
8372.11
7906.14
7430.05
6941.97
6439.91
5921.81
5385.64
4829.49
4251.78
3651.44
3028.24
2383.08
1718.3
1037.81
347.12
414.202
1239.85
2057.51
2862.63
3651.65
4422.04
5172.32
5901.81
6610.5
7298.86
7967.64
8617.76
9250.22
9865.98
10465.9
11050.9
11621.5
12178.2
12721.6
13251.7
13768.7
14272.5
14762.9
15239.7
15702.4
16150.6
16583.6
17000.7
17401.3
17784.6
18149.7
18495.8
18822.2
19127.8
19412
19673.9
19912.8
20127.9
20318.7
20484.4
20624.7
20739.1
20827.2
20888.9
20924
20932.5
20914.5
20870.1
20799.7
20703.6
20582.4
20436.7
20267.2
20074.7
19860
19624.2
19368.2
19093.2
18800.2
18490.5
18165.3
17825.8
17473.2
17108.8
16733.7
16349.3
15956.5
15556.7
15150.7
14739.6
14324.3
13905.6
13484.2
13060.8
12635.8
12209.6
11782.5
11354.5
10925.7
10495.8
10064.5
9631.41
9195.74
8756.72
8313.38
7864.57
7409.02
6945.33
6471.98
5987.39
5489.98
4978.24
4450.8
3906.65
3345.23
2766.62
2171.81
1562.74
942.465
314.984
387.873
1161.58
1929.35
2687.7
3433.8
4165.51
4881.41
5580.7
6263.11
6928.74
7577.96
8211.32
8829.45
9432.99
10022.5
10598.7
11161.8
11712.2
12250.2
12775.9
13289.1
13789.8
14277.8
14752.5
15213.6
15660.4
16092.4
16508.8
16908.9
17291.9
17656.8
18003
18329.4
18635.3
18919.7
19182
19421.2
19636.8
19827.9
19994.1
20134.8
20249.6
20338.2
20400.2
20435.7
20444.5
20426.7
20382.6
20312.3
20216.4
20095.3
19949.6
19780.1
19587.5
19372.7
19136.7
18880.6
18605.3
18312.1
18002.1
17676.6
17336.7
16983.8
16619.1
16243.8
15859.1
15466.2
15066.2
14660.2
14249.2
13834.1
13415.7
12994.9
12572.2
12148.3
11723.4
11297.9
10872
10445.7
10018.9
9591.31
9162.59
8732.18
8299.41
7863.46
7423.38
6978.13
6526.54
6067.4
5599.44
5121.46
4632.29
4130.99
3616.87
3089.65
2549.57
1997.5
1435.03
864.464
288.745
365.922
1096.23
1822.05
2540.68
3249.87
3947.83
4633.3
5305.45
5963.86
6608.42
7239.25
7856.63
8460.91
9052.49
9631.75
10199
10754.5
11298.5
11830.9
12351.9
12861.1
13358.5
13843.6
14316
14775.1
15220.4
15651.2
16066.6
16466
16848.4
17213
17558.9
17885.3
18191.2
18475.8
18738.2
18977.7
19193.6
19385.1
19551.6
19692.7
19807.9
19896.8
19959.2
19995
20004.2
19986.7
19942.8
19872.8
19777.1
19656.2
19510.6
19341.2
19148.6
18933.9
18697.9
18441.7
18166.4
17873.1
17563
17237.4
16897.4
16544.4
16179.6
15804.3
15419.6
15026.7
14626.8
14221.1
13810.4
13395.7
12978
12557.9
12136.3
11713.6
11290.2
10866.7
10443
10019.5
9595.96
9172.27
8748.14
8323.13
7896.69
7468.16
7036.74
6601.58
6161.72
5716.17
5263.95
4804.08
4335.7
3858.11
3370.84
2873.75
2367.1
1851.62
1328.54
799.605
266.959
347.315
1040.77
1730.78
2415.25
3092.36
3760.66
4419.02
5066.67
5703.12
6328.14
6941.69
7543.85
8134.78
8714.68
9283.74
9842.13
10390
10927.2
11453.9
11969.9
12474.9
12968.6
13450.5
13920.3
14377.2
14820.6
15249.8
15664
16062.3
16444
16808
17153.5
17479.5
17785.3
18069.8
18332.2
18571.9
18787.9
18979.6
19146.4
19287.8
19403.3
19492.5
19555.3
19591.4
19600.9
19583.8
19540.2
19470.5
19375.1
19254.4
19109.2
18940
18747.6
18533.1
18297.3
18041.2
17766
17472.9
17163
16837.5
16497.7
16144.9
15780.3
15405.1
15020.7
14628.2
14228.7
13823.4
13413.4
12999.5
12582.7
12163.7
11743.4
11322.2
10900.7
10479.3
10058.3
9637.72
9217.7
8798.11
8378.74
7959.26
7539.23
7118.1
6695.24
6269.92
5841.37
5408.8
4971.39
4528.38
4079.1
3623.02
3159.79
2689.32
2211.85
1727.95
1238.54
744.905
248.605
331.292
992.97
1651.97
2306.67
2955.6
3597.56
4231.6
4856.99
5473.26
6080.1
6677.36
7264.99
7843.02
8411.5
8970.47
9519.97
10060
10590.4
11111
11621.7
12122.1
12611.8
13090.3
13557
14011.4
14452.6
14879.9
15292.5
15689.5
16070
16433.1
16777.8
17103.3
17408.6
17692.8
17955.1
18194.6
18410.6
18602.4
18769.4
18910.9
19026.7
19116.2
19179.3
19215.8
19225.6
19208.9
19165.7
19096.4
19001.4
18881.1
18736.2
18567.4
18375.5
18161.4
17925.9
17670.3
17395.5
17102.8
16793.3
16468.3
16128.9
15776.6
15412.5
15037.9
14654.1
14262.3
13863.6
13459.2
13050.1
12637.3
12221.8
11804.3
11385.6
10966.3
10547
10128.1
9709.94
9292.68
8876.43
8461.17
8046.75
7632.94
7219.38
6805.64
6391.21
5975.48
5557.84
5137.61
4714.14
4286.82
3855.11
3418.56
2976.92
2530.11
2078.28
1621.86
1161.52
698.177
232.941
317.281
951.137
1582.91
2211.3
2835.17
3453.5
4065.5
4670.52
5268.1
5857.91
6439.74
7013.45
7578.97
8136.23
8685.17
9225.72
9757.74
10281.1
10795.4
11300.5
11796
12281.3
12755.9
13219.2
13670.5
14109.1
14534.1
14944.7
15340
15719
16080.8
16424.5
16749.1
17053.7
17337.3
17599.2
17838.4
18054.2
18245.9
18412.8
18554.4
18670.3
18760
18823.4
18860.2
18870.4
18854
18811.3
18742.5
18648
18528.3
18384
18215.8
18024.5
17811
17576.2
17321.3
17047.2
16755.2
16446.5
16122.2
15783.7
15432.3
15069.1
14695.5
14312.7
13922
13524.5
13121.3
12713.6
12302.4
11888.5
11472.9
11056.2
10639.3
10222.5
9806.49
9391.53
8977.88
8565.7
8155.01
7745.75
7337.75
6930.76
6524.41
6118.3
5711.93
5304.8
4896.34
4486.02
4073.32
3657.79
3239.07
2816.91
2391.24
1962.12
1529.83
1094.84
657.779
219.408
304.838
913.963
1521.46
2126.3
2727.57
3324.45
3916.27
4502.45
5082.58
5656.32
6223.42
6783.69
7336.99
7883.16
8422.08
8953.57
9477.43
9993.39
10501.1
11000.3
11490.4
11970.9
12441.2
12900.6
13348.5
13783.9
14206.2
14614.3
15007.4
15384.5
15744.7
16086.9
16410.3
16713.8
16996.5
17257.6
17496.2
17711.6
17902.9
18069.6
18211.2
18327.1
18416.9
18480.5
18517.6
18528.1
18512.2
18470.1
18401.8
18308
18189
18045.5
17878.1
17687.7
17475.1
17241.3
16987.4
16714.4
16423.5
16115.9
15792.9
15455.6
15105.4
14743.6
14371.4
13990.2
13601
13205.1
12803.8
12397.9
11988.7
11577
11163.6
10749.5
10335.3
9921.55
9508.8
9097.44
8687.76
8279.97
7874.14
7470.28
7068.28
6667.95
6269.02
5871.15
5473.95
5076.98
4679.78
4281.89
3882.88
3482.34
3079.96
2675.5
2268.85
1860
1449.11
1036.46
622.447
207.58
293.614
880.411
1465.93
2049.38
2630
3207.15
3780.25
4348.83
4912.48
5470.9
6023.82
6571
7112.27
7647.42
8176.24
8698.5
9213.93
9722.2
10222.9
10715.7
11200
11675.2
12140.7
12595.7
13039.6
13471.5
13890.5
14295.7
14686.1
15060.8
15418.8
15759.2
16080.8
16382.9
16664.3
16924.4
17162.1
17376.7
17567.4
17733.8
17875
17990.8
18080.6
18144.3
18181.7
18192.6
18177.2
18135.7
18068.1
17975.1
17857
17714.5
17548.2
17358.9
17147.6
16915.1
16662.6
16391
16101.6
15795.6
15474.2
15138.7
14790.3
14430.4
14060.1
13680.9
13293.8
12900.2
12501.1
12097.7
11691
11281.9
10871.5
10460.4
10049.4
9639.11
9230.1
8822.78
8417.48
8014.45
7613.81
7215.63
6819.84
6426.32
6034.87
5645.21
5257.02
4869.93
4483.55
4097.49
3711.36
3324.79
2937.5
2549.23
2159.83
1769.25
1377.51
984.746
591.188
197.121
283.326
849.643
1414.97
1978.67
2540.15
3098.89
3654.42
4206.33
4754.26
5297.91
5837.02
6371.35
6900.67
7424.75
7943.32
8456.11
8962.79
9463
9956.29
10442.2
10920.1
11389.5
11849.6
12299.8
12739.1
13166.8
13581.9
13983.6
14370.8
14742.6
15098
15435.9
15755.4
16055.6
16335.4
16593.9
16830.4
17043.9
17233.8
17399.5
17540.3
17655.8
17745.5
17809.3
17846.8
17858.2
17843.3
17802.4
17735.7
17643.6
17526.7
17385.3
17220.4
17032.6
16822.9
16592.1
16341.3
16071.7
15784.3
15480.4
15161.1
14827.9
14481.8
14124.3
13756.6
13379.9
12995.5
12604.7
12208.5
11808.1
11404.6
10998.8
10591.8
10184.3
9777.07
9370.81
8966.05
8563.25
8162.78
7764.93
7369.85
6977.66
6588.34
6201.82
5817.95
5436.52
5057.25
4679.83
4303.93
3929.2
3555.28
3181.84
2808.58
2435.25
2061.67
1687.69
1313.27
938.418
563.209
187.764
273.744
820.973
1367.43
1912.63
2456.11
2997.44
3536.24
4072.15
4604.88
5134.14
5659.68
6181.24
6698.59
7211.44
7719.53
8222.53
8720.08
9211.76
9697.11
10175.6
10646.6
11109.6
11563.7
12008.3
12442.4
12865.3
13276
13673.5
14056.9
14425.2
14777.4
15112.4
15429.2
15727
16004.6
16261.3
16496.1
16708.2
16897
17061.7
17201.8
17316.8
17406.3
17470
17507.8
17519.5
17505.2
17465.1
17399.4
17308.4
17192.8
17053
16889.7
16703.7
16495.9
16267.2
16018.7
15751.4
15466.5
15165.2
14848.7
14518.3
14175.2
13820.7
13456.1
13082.7
12701.7
12314.3
11921.7
11525
11125.2
10723.4
10320.4
9917.16
9514.37
9112.71
8712.76
8315.03
7919.89
7527.67
7138.58
6752.74
6370.2
5990.92
5614.8
5241.66
4871.29
4503.41
4137.73
3773.93
3411.69
3050.68
2690.61
2331.2
1972.24
1613.54
1254.96
896.417
537.864
179.291
264.676
793.83
1322.4
1850
2376.28
2900.9
3423.54
3943.92
4461.78
4976.84
5488.88
5997.64
6502.86
7004.26
7501.54
7994.34
8482.28
8964.92
9441.76
9912.24
10375.7
10831.6
11279.1
11717.4
12145.7
12563
12968.6
13361.3
13740.3
14104.4
14452.7
14784.2
15097.8
15392.6
15667.6
15921.9
16154.7
16365.1
16552.3
16715.8
16855
16969.3
17058.4
17122
17159.8
17171.9
17158.3
17119
17054.4
16964.8
16850.7
16712.6
16551.3
16367.5
16162.1
15936
15690.2
15425.8
15144
14845.9
14532.7
14205.7
13866.2
13515.5
13154.7
12785.3
12408.3
12025.1
11636.8
11244.4
10849.2
10452
10053.8
9655.43
9257.71
8861.29
8466.78
8074.69
7685.44
7299.38
6916.73
6537.66
6162.25
5790.51
5422.35
5057.65
4696.22
4337.82
3982.2
3629.05
3278.07
2928.95
2581.39
2235.1
1889.82
1545.32
1201.39
857.872
514.622
171.525
255.961
767.736
1279.07
1789.69
2299.3
2807.66
3314.5
3819.6
4322.71
4823.62
5322.09
5817.88
6310.72
6800.33
7286.38
7768.51
8246.31
8719.32
9187.01
9648.81
10104.1
10552.1
10992.2
11423.5
11845.2
12256.4
12656
13043.2
13417
13776.3
14120.1
14447.4
14757.2
15048.5
15320.3
15571.8
15802
16010.2
16195.6
16357.5
16495.5
16608.9
16697.4
16760.7
16798.6
16811.1
16798.1
16759.8
16696.4
16608.4
16496.1
16360.1
16201.1
16019.9
15817.3
15594.2
15351.7
15090.7
14812.5
14518.2
14209.1
13886.3
13551.1
13204.7
12848.6
12483.8
12111.7
11733.4
11350.1
10963
10573
10181.2
9788.51
9395.81
9003.87
8613.39
8224.98
7839.18
7456.42
7077.07
6701.38
6329.55
5961.69
5597.82
5237.9
4881.83
4529.46
4180.57
3834.93
3492.26
3152.26
2814.63
2479.06
2145.25
1812.91
1481.76
1151.56
822.055
493.042
164.316
247.464
742.287
1236.79
1730.77
2224.02
2716.34
3207.54
3697.41
4185.77
4672.42
5157.12
5639.66
6119.76
6597.14
7071.47
7542.36
8009.41
8472.12
8929.97
9382.37
9828.67
10268.1
10700.1
11123.6
11537.9
11942
12335
12715.9
13083.7
13437.4
13776
14098.5
14403.8
14690.9
14959
15207.1
15434.3
15639.8
15823
15983
16119.5
16231.8
16319.5
16382.4
16420.3
16433.1
16420.8
16383.6
16321.6
16235.3
16125.1
15991.5
15835.2
15657
15457.7
15238.1
14999.4
14742.5
14468.6
14178.8
13874.3
13556.4
13226.2
12885.1
12534.3
12175.1
11808.6
11436
11058.6
10677.5
10293.6
9907.99
9521.63
9135.37
8749.98
8366.17
7984.59
7605.75
7230.14
6858.1
6489.95
6125.87
5766.01
5410.41
5059.07
4711.9
4368.77
4029.5
3693.85
3361.58
3032.38
2705.97
2382.03
2060.23
1740.27
1421.83
1104.62
788.355
472.751
157.54
239.071
717.139
1194.99
1672.48
2149.46
2625.78
3101.3
3575.86
4049.3
4521.42
4992.05
5460.94
5927.85
6392.48
6854.5
7313.53
7769.14
8220.84
8668.09
9110.3
9546.8
9976.89
10399.8
10814.7
11220.7
11616.9
12002.4
12376.2
12737.3
13084.7
13417.3
13734.2
14034.3
14316.7
14580.4
14824.5
15048.2
15250.7
15431.1
15588.9
15723.5
15834.4
15921.2
15983.6
16021.4
16034.5
16023
15986.9
15926.5
15842.2
15734.3
15603.4
15450.2
15275.4
15079.9
14864.4
14630.1
14377.8
14108.9
13824.2
13525.2
13212.9
12888.6
12553.5
12208.9
11856
11496
11130.1
10759.4
10385.1
10008.2
9629.66
9250.47
8871.46
8493.43
8117.1
7743.09
7371.96
7004.18
6640.12
6280.11
5924.35
5573
5226.13
4883.76
4545.81
4212.18
3882.69
3557.14
3235.27
2916.82
2601.47
2288.9
1978.79
1670.81
1364.61
1059.87
756.252
453.433
151.091
230.682
692.002
1153.19
1614.14
2074.77
2534.97
2994.64
3453.64
3911.85
4369.1
4825.21
5279.97
5733.14
6184.42
6633.47
7079.94
7523.36
7963.27
8399.12
8830.3
9256.15
9675.96
10089
10494.3
10891.2
11278.7
11655.8
12021.6
12375.1
12715.3
13041.2
13351.8
13646
13922.9
14181.6
14421.2
14640.8
14839.6
15016.9
15172.1
15304.6
15413.8
15499.4
15561.1
15598.8
15612.2
15601.4
15566.6
15508
15425.8
15320.5
15192.8
15043.1
14872.1
14680.9
14470
14240.7
13993.8
13730.4
13451.7
13158.9
12853
12535.4
12207.2
11869.6
11523.9
11171.3
10812.9
10449.9
10083.4
9714.33
9343.77
8972.62
8601.75
8231.94
7863.91
7498.29
7135.63
6776.41
6421.04
6069.82
5722.99
5380.71
5043.07
4710.11
4381.76
4057.94
3738.49
3423.2
3111.85
2804.15
2499.81
2198.5
1899.89
1603.62
1309.34
1016.69
725.305
434.822
144.88
222.217
666.628
1110.97
1555.19
1999.24
2443.06
2886.55
3329.64
3772.2
4214.11
4655.19
5095.24
5534.04
5971.28
6406.66
6839.79
7270.24
7697.52
8121.09
8540.35
8954.65
9363.27
9765.45
10160.4
10547.2
10925
11292.8
11649.8
11994.8
12327
12645.3
12948.7
13236.3
13507.1
13760.1
13994.5
14209.5
14404.1
14577.9
14730
14859.9
14967.2
15051.5
15112.3
15149.7
15163.4
15153.5
15120
15063.3
14983.5
14881.2
14756.8
14611
14444.5
14258
14052.4
13828.7
13587.8
13330.8
13058.7
12772.8
12474.2
12164.1
11843.7
11514.1
11176.5
10832.3
10482.3
10127.9
9770.08
9409.84
9048.18
8686.01
8324.18
7963.48
7604.61
7248.21
6894.83
6544.96
6199
5857.27
5520.01
5187.41
4859.56
4536.49
4218.19
3904.55
3595.44
3290.67
2990
2693.17
2399.89
2109.81
1822.61
1537.92
1255.36
974.563
695.135
416.688
138.831
213.605
640.81
1068
1495.17
1922.28
2349.31
2776.21
3202.91
3629.32
4055.33
4480.77
4905.46
5329.19
5751.66
6172.58
6591.55
7008.17
7421.94
7832.33
8238.75
8640.55
9037.03
9427.42
9810.94
10186.7
10553.9
10911.5
11258.7
11594.4
11917.6
12227.5
12523
12803.2
13067
13313.7
13542.3
13752
13942
14111.7
14260.3
14387.4
14492.4
14575
14634.9
14671.9
14685.9
14676.8
14644.8
14590.1
14513
14414
14293.4
14151.9
13990.2
13809
13609.3
13391.8
13157.6
12907.6
12643.1
12365
12074.5
11772.7
11460.9
11140.2
10811.8
10476.8
10136.3
9791.46
9443.31
9092.85
8741.04
8388.8
8036.95
7686.27
7337.46
6991.15
6647.9
6308.18
5972.4
5640.89
5313.9
4991.61
4674.13
4361.5
4053.72
3750.69
3452.29
3158.33
2868.6
2582.83
2300.72
2021.95
1746.17
1473.02
1202.11
933.043
665.423
398.838
132.877
204.788
614.376
1024
1433.66
1843.38
2253.14
2662.93
3072.68
3482.34
3891.8
4300.93
4709.55
5117.45
5524.36
5929.98
6333.94
6735.83
7135.18
7531.45
7924.07
8312.4
8695.74
9073.37
9444.48
9808.25
10163.8
10510.3
10846.7
11172.1
11485.6
11786.1
12072.9
12344.8
12601
12840.6
13062.7
13266.5
13451.4
13616.4
13761.2
13885.1
13987.6
14068.3
14127
14163.5
14177.7
14169.5
14139.1
14086.7
14012.5
13916.9
13800.5
13663.8
13507.4
13332.1
13138.8
12928.2
12701.4
12459.3
12203
11933.5
11652
11359.5
11057.3
10746.4
10428
10103.3
9773.2
9438.91
9101.43
8761.74
8420.78
8079.44
7738.53
7398.81
7060.98
6725.66
6393.4
6064.66
5739.87
5419.33
5103.32
4792.01
4485.53
4183.92
3887.18
3595.23
3307.95
3025.18
2746.69
2472.22
2201.49
1934.17
1669.92
1408.36
1149.1
891.753
635.894
381.107
126.964
195.721
587.186
978.718
1370.36
1762.13
2154.06
2546.12
2938.31
3330.55
3722.78
4114.86
4506.63
4897.9
5288.41
5677.87
6065.92
6452.16
6836.13
7217.31
7595.15
7969.01
8338.22
8702.06
9059.77
9410.52
9753.47
10087.8
10412.5
10726.7
11029.4
11319.8
11596.9
11859.8
12107.6
12339.4
12554.4
12751.8
12930.8
13090.8
13231.2
13351.5
13451.1
13529.8
13587.2
13623.1
13637.4
13630.1
13601.4
13551.4
13480.3
13388.6
13276.7
13145.1
12994.6
12825.8
12639.4
12436.5
12217.7
11984.2
11736.9
11476.9
11205.2
10923
10631.3
10331.2
10023.8
9710.3
9391.66
9068.93
8743.13
8415.22
8086.1
7756.64
7427.65
7099.85
6773.94
6450.52
6130.12
5813.23
5500.23
5191.46
4887.16
4587.54
4292.71
4002.72
3717.58
3437.21
3161.52
2890.33
2623.44
2360.59
2101.49
1845.84
1593.28
1343.44
1095.94
850.374
606.32
363.355
121.045
186.365
559.128
931.988
1305
1678.22
2051.67
2425.36
2799.28
3173.4
3547.64
3921.9
4296.02
4669.82
5043.06
5415.46
5786.67
6156.31
6523.94
6889.05
7251.1
7609.48
7963.55
8312.59
8655.87
8992.59
9321.94
9643.07
9955.09
10257.1
10548.3
10827.6
11094.2
11347.3
11585.9
11809.1
12016.3
12206.6
12379.3
12533.7
12669.4
12785.6
12882.1
12958.4
13014.2
13049.5
13063.9
13057.6
13030.7
12983.2
12915.5
12827.9
12720.9
12595
12450.7
12288.9
12110.2
11915.5
11705.5
11481.4
11243.9
10994.2
10733.3
10462.1
10181.8
9893.5
9598.16
9296.86
8990.63
8680.48
8367.37
8052.24
7735.97
7419.4
7103.3
6788.39
6475.34
6164.74
5857.11
5552.92
5252.55
4956.33
4664.51
4377.29
4094.78
3817.04
3544.09
3275.85
3012.24
2753.08
2498.18
2247.3
2000.15
1756.43
1515.79
1277.87
1042.29
808.643
576.51
345.468
115.083
176.693
530.121
883.667
1237.41
1591.4
1945.68
2300.3
2655.23
3010.47
3365.95
3721.57
4077.21
4432.68
4787.76
5142.18
5495.62
5847.7
6198.01
6546.06
6891.32
7233.21
7571.1
7904.32
8232.15
8553.84
8868.58
9175.56
9473.95
9762.87
10041.5
10308.8
10564.2
10806.5
11035.1
11249.2
11447.8
11630.4
11796.2
11944.6
12075
12186.9
12279.8
12353.5
12407.7
12442.1
12456.6
12451.3
12426.2
12381.5
12317.4
12234.2
12132.4
12012.6
11875.1
11720.8
11550.4
11364.5
11164.1
10950.1
10723.3
10484.7
10235.3
9976.18
9708.28
9432.63
9150.26
8862.18
8569.37
8272.8
7973.4
7672.06
7369.65
7066.95
6764.73
6463.68
6164.43
5867.57
5573.6
5282.98
4996.08
4713.22
4434.64
4160.54
3891.05
3626.21
3366.05
3110.5
2859.48
2612.83
2370.36
2131.84
1896.99
1665.51
1437.07
1211.32
987.877
766.342
546.306
327.35
109.044
166.686
500.105
833.66
1167.43
1501.5
1835.91
2170.71
2505.91
2841.48
3177.4
3513.56
3849.86
4186.13
4522.15
4857.68
5192.41
5525.98
5857.98
6187.98
6515.44
6839.83
7160.55
7476.93
7788.3
8093.94
8393.08
8684.94
8968.72
9243.59
9508.72
9763.27
10006.4
10237.3
10455.2
10659.3
10848.8
11023
11181.3
11323.1
11447.8
11555
11644.1
11715
11767.2
11800.7
11815.3
11810.9
11787.8
11746
11685.7
11607.2
11511.1
11397.7
11267.5
11121.3
10959.6
10783.3
10593.1
10389.9
10174.6
9947.94
9711.03
9464.78
9210.17
8948.16
8679.74
8405.85
8127.45
7845.45
7560.75
7274.21
6986.63
6698.8
6411.43
6125.19
5840.69
5558.49
5279.07
5002.88
4730.28
4461.58
4197.02
3936.78
3680.99
3429.71
3182.95
2940.67
2702.78
2469.13
2239.55
2013.8
1791.63
1572.74
1356.83
1143.53
932.48
723.3
515.586
308.927
102.905
156.333
469.048
781.911
1095.01
1408.43
1722.24
2036.47
2351.16
2666.29
2981.84
3297.72
3613.83
3930.01
4246.09
4561.8
4876.88
5190.99
5503.73
5814.69
6123.38
6429.28
6731.81
7030.36
7324.28
7612.88
7895.44
8171.22
8439.45
8699.35
8950.12
9190.97
9421.11
9639.76
9846.15
10039.5
10219.2
10384.5
10534.8
10669.5
10788.1
10890.1
10975.2
11042.9
11093.1
11125.5
11140
11136.7
11115.6
11076.8
11020.6
10947.1
10856.9
10750.4
10628
10490.4
10338.1
10172
9992.67
9801.02
9597.83
9383.99
9160.37
8927.89
8687.47
8440.02
8186.48
7927.74
7664.71
7398.27
7129.25
6858.47
6586.71
6314.71
6043.14
5772.65
5503.82
5237.18
4973.2
4712.29
4454.82
4201.07
3951.28
3705.63
3464.24
3227.17
2994.44
2766.01
2541.79
2321.65
2105.42
1892.89
1683.8
1477.88
1274.82
1074.29
875.937
679.387
484.254
290.142
96.6454
145.629
436.939
728.404
1020.12
1312.18
1604.64
1897.56
2190.97
2484.87
2779.24
3074.01
3369.09
3664.34
3959.58
4254.59
4549.11
4842.82
5135.36
5426.33
5715.28
6001.71
6285.09
6564.84
6840.34
7110.94
7375.98
7634.74
7886.5
8130.53
8366.07
8592.38
8808.71
9014.32
9208.5
9390.53
9559.75
9715.52
9857.25
9984.38
10096.4
10192.9
10273.5
10337.9
10385.8
10417
10431.5
10429.3
10410.2
10374.6
10322.6
10254.5
10170.5
10071.2
9957.05
9828.51
9686.24
9530.87
9363.12
9183.73
8993.48
8793.18
8583.67
8365.8
8140.43
7908.44
7670.69
7428.03
7181.31
6931.36
6678.97
6424.91
6169.92
5914.68
5659.84
5406.02
5153.75
4903.55
4655.86
4411.08
4169.53
3931.51
3697.24
3466.89
3240.58
3018.38
2800.29
2586.28
2376.28
2170.17
1967.77
1768.9
1573.31
1380.74
1190.9
1003.48
818.132
634.51
452.244
270.954
90.2524
134.578
403.788
673.157
942.784
1212.76
1483.15
1754.02
2025.41
2297.31
2569.72
2842.59
3115.82
3389.29
3662.85
3936.28
4209.35
4481.76
4753.19
5023.25
5291.53
5557.56
5820.85
6080.86
6337.01
6588.7
6835.29
7076.13
7310.54
7537.84
7757.32
7968.27
8170.02
8361.85
8543.09
8713.1
8871.23
9016.9
9149.54
9268.63
9373.71
9464.35
9540.21
9600.98
9646.43
9676.39
9690.76
9689.51
9672.68
9640.38
9592.8
9530.18
9452.84
9361.16
9255.6
9136.64
9004.86
8860.85
8705.27
8538.82
8362.21
8176.2
7981.57
7779.12
7569.65
7353.96
7132.88
6907.19
6677.68
6445.13
6210.28
5973.85
5736.53
5498.96
5261.75
5025.47
4790.64
4557.72
4327.15
4099.29
3874.46
3652.92
3434.89
3220.54
3009.98
2803.26
2600.42
2401.41
2206.17
2014.58
1826.49
1641.72
1460.04
1281.22
1104.97
931.001
758.993
588.614
419.515
251.338
83.7173
123.191
369.627
616.222
863.074
1110.28
1357.9
1606.01
1854.64
2103.81
2353.51
2603.69
2854.29
3105.19
3356.24
3607.27
3858.04
4108.3
4357.74
4606.02
4852.75
5097.49
5339.81
5579.18
5815.1
6046.98
6274.26
6496.33
6712.55
6922.29
7124.91
7319.74
7506.15
7683.5
7851.14
8008.49
8154.94
8289.96
8413
8523.6
8621.31
8705.75
8776.58
8833.52
8876.35
8904.9
8919.09
8918.87
8904.28
8875.42
8832.44
8775.58
8705.13
8621.43
8524.89
8415.97
8295.18
8163.08
8020.26
7867.38
7705.08
7534.07
7355.06
7168.79
6976
6777.44
6573.85
6365.97
6154.53
5940.24
5723.8
5505.87
5287.08
5068.04
4849.3
4631.41
4414.83
4200.01
3987.34
3777.17
3569.79
3365.46
3164.37
2966.68
2772.5
2581.89
2394.86
2211.4
2031.44
1854.87
1681.55
1511.33
1343.98
1179.29
1017
856.832
698.494
541.673
386.048
231.283
77.0363
111.484
334.504
557.68
781.11
1004.88
1229.07
1453.75
1678.94
1904.68
2130.95
2357.73
2584.94
2812.51
3040.29
3268.13
3495.82
3723.12
3949.76
4175.43
4399.77
4622.4
4842.9
5060.81
5275.65
5486.92
5694.07
5896.55
6093.79
6285.21
6470.21
6648.2
6818.58
6980.76
7134.18
7278.26
7412.48
7536.32
7649.3
7750.98
7840.95
7918.85
7984.37
8037.26
8077.29
8104.33
8118.27
8119.08
8106.78
8081.46
8043.26
7992.39
7929.09
7853.68
7766.54
7668.07
7558.75
7439.06
7309.56
7170.83
7023.47
6868.12
6705.42
6536.05
6360.68
6180
5994.68
5805.4
5612.83
5417.61
5220.39
5021.76
4822.32
4622.61
4423.15
4224.42
4026.88
3830.91
3636.89
3445.13
3255.91
3069.46
2885.96
2705.57
2528.37
2354.44
2183.79
2016.4
1852.21
1691.14
1533.04
1377.78
1225.17
1074.99
927.01
780.986
636.643
493.696
351.848
210.79
70.2102
99.4785
298.486
497.644
697.047
896.78
1096.92
1297.53
1498.65
1700.3
1902.49
2105.19
2308.34
2511.88
2715.68
2919.6
3123.47
3327.07
3530.16
3732.45
3933.64
4133.38
4331.29
4526.96
4719.97
4909.85
5096.11
5278.27
5455.8
5628.18
5794.87
5955.34
6109.04
6255.45
6394.04
6524.31
6645.77
6757.95
6860.43
6952.78
7034.65
7105.71
7165.67