/*--------------------------------*- C++ -*----------------------------------*\
  =========                 |
  \\      /  F ield         | OpenFOAM: The Open Source CFD Toolbox
   \\    /   O peration     | Website:  https://openfoam.org
    \\  /    A nd           | Version:  9
     \\/     M anipulation  |
\*---------------------------------------------------------------------------*/
FoamFile
{
    format      ascii;
    class       volScalarField;
    location    "0.4";
    object      gradTz;
}
// * * * * * * * * * * * * * * * * * * * * * * * * * * * * * * * * * * * * * //

dimensions      [0 -1 0 1 0 0 0];

internalField   nonuniform List<scalar> 
200000
(
-6343.14
-6865.29
-7018.49
-7074.1
-7098.36
-7110.52
-7117.25
-7121.23
-7123.69
-7125.23
-7126.22
-7126.83
-7127.19
-7127.38
-7127.44
-7127.42
-7127.34
-7127.2
-7127.04
-7126.84
-7126.64
-7126.41
-7126.18
-7125.95
-7125.72
-7125.48
-7125.25
-7125.02
-7124.8
-7124.59
-7124.38
-7124.18
-7123.99
-7123.82
-7123.65
-7123.5
-7123.36
-7123.24
-7123.13
-7123.03
-7122.95
-7122.89
-7122.83
-7122.8
-7122.78
-7122.78
-7122.79
-7122.82
-7122.86
-7122.92
-7123
-7123.09
-7123.19
-7123.31
-7123.44
-7123.58
-7123.73
-7123.9
-7124.07
-7124.26
-7124.45
-7124.66
-7124.87
-7125.08
-7125.31
-7125.53
-7125.76
-7126
-7126.23
-7126.47
-7126.71
-7126.95
-7127.18
-7127.41
-7127.64
-7127.86
-7128.08
-7128.28
-7128.47
-7128.65
-7128.8
-7128.94
-7129.04
-7129.1
-7129.11
-7129.04
-7128.89
-7128.61
-7128.15
-7127.44
-7126.35
-7124.69
-7122.13
-7118.03
-7111.19
-7098.91
-7074.53
-7018.79
-6865.47
-6343.2
-6865.29
-7868.95
-8222.88
-8366.73
-8433.5
-8468.09
-8487.55
-8499.17
-8506.38
-8510.94
-8513.84
-8515.64
-8516.71
-8517.26
-8517.45
-8517.38
-8517.12
-8516.72
-8516.22
-8515.64
-8515.01
-8514.35
-8513.66
-8512.96
-8512.25
-8511.55
-8510.85
-8510.17
-8509.51
-8508.86
-8508.24
-8507.65
-8507.09
-8506.56
-8506.07
-8505.62
-8505.2
-8504.83
-8504.49
-8504.2
-8503.96
-8503.76
-8503.61
-8503.51
-8503.45
-8503.44
-8503.48
-8503.57
-8503.7
-8503.88
-8504.1
-8504.37
-8504.67
-8505.02
-8505.41
-8505.84
-8506.3
-8506.8
-8507.32
-8507.88
-8508.46
-8509.07
-8509.7
-8510.35
-8511.02
-8511.7
-8512.39
-8513.1
-8513.8
-8514.52
-8515.23
-8515.94
-8516.64
-8517.34
-8518.02
-8518.69
-8519.33
-8519.94
-8520.52
-8521.05
-8521.52
-8521.92
-8522.22
-8522.41
-8522.43
-8522.25
-8521.8
-8520.97
-8519.61
-8517.5
-8514.28
-8509.39
-8501.85
-8489.89
-8470.08
-8435.14
-8368.01
-8223.8
-7869.5
-6865.47
-7018.49
-8222.88
-8686.57
-8888.91
-8987.74
-9040.7
-9071.16
-9089.59
-9101.13
-9108.47
-9113.15
-9116.07
-9117.79
-9118.67
-9118.97
-9118.83
-9118.38
-9117.7
-9116.86
-9115.9
-9114.85
-9113.74
-9112.59
-9111.42
-9110.24
-9109.07
-9107.91
-9106.77
-9105.66
-9104.59
-9103.55
-9102.57
-9101.63
-9100.75
-9099.93
-9099.17
-9098.48
-9097.86
-9097.3
-9096.82
-9096.42
-9096.09
-9095.83
-9095.66
-9095.57
-9095.55
-9095.62
-9095.76
-9095.98
-9096.27
-9096.64
-9097.09
-9097.6
-9098.18
-9098.83
-9099.54
-9100.31
-9101.14
-9102.02
-9102.95
-9103.92
-9104.93
-9105.98
-9107.07
-9108.18
-9109.31
-9110.47
-9111.64
-9112.82
-9114.01
-9115.2
-9116.38
-9117.56
-9118.72
-9119.85
-9120.96
-9122.03
-9123.05
-9124.02
-9124.9
-9125.69
-9126.36
-9126.87
-9127.19
-9127.25
-9126.97
-9126.23
-9124.88
-9122.67
-9119.25
-9114.04
-9106.15
-9094.06
-9075.06
-9044.02
-8990.47
-8891.04
-8688.1
-8223.8
-7018.8
-7074.1
-8366.73
-8888.91
-9127.68
-9248.97
-9315.92
-9355.27
-9379.44
-9394.72
-9404.51
-9410.77
-9414.67
-9416.97
-9418.13
-9418.49
-9418.26
-9417.61
-9416.65
-9415.45
-9414.09
-9412.62
-9411.06
-9409.45
-9407.8
-9406.15
-9404.51
-9402.88
-9401.29
-9399.73
-9398.23
-9396.78
-9395.4
-9394.09
-9392.86
-9391.71
-9390.65
-9389.68
-9388.8
-9388.03
-9387.35
-9386.78
-9386.32
-9385.97
-9385.73
-9385.59
-9385.57
-9385.66
-9385.86
-9386.17
-9386.58
-9387.1
-9387.72
-9388.44
-9389.26
-9390.17
-9391.16
-9392.24
-9393.4
-9394.63
-9395.93
-9397.29
-9398.71
-9400.18
-9401.7
-9403.26
-9404.85
-9406.47
-9408.11
-9409.76
-9411.42
-9413.09
-9414.75
-9416.39
-9418.02
-9419.61
-9421.16
-9422.67
-9424.1
-9425.45
-9426.69
-9427.81
-9428.75
-9429.48
-9429.94
-9430.05
-9429.69
-9428.72
-9426.9
-9423.92
-9419.3
-9412.31
-9401.75
-9385.69
-9360.73
-9320.57
-9252.79
-9130.66
-8891.04
-8368.01
-7074.53
-7098.36
-8433.5
-8987.74
-9248.97
-9385.49
-9462.67
-9508.88
-9537.66
-9556.04
-9567.89
-9575.49
-9580.23
-9583
-9584.38
-9584.76
-9584.41
-9583.53
-9582.26
-9580.71
-9578.95
-9577.04
-9575.02
-9572.94
-9570.83
-9568.7
-9566.58
-9564.49
-9562.44
-9560.44
-9558.5
-9556.64
-9554.86
-9553.18
-9551.59
-9550.11
-9548.74
-9547.5
-9546.37
-9545.37
-9544.5
-9543.77
-9543.18
-9542.72
-9542.41
-9542.24
-9542.21
-9542.33
-9542.58
-9542.98
-9543.51
-9544.18
-9544.98
-9545.91
-9546.96
-9548.12
-9549.4
-9550.79
-9552.28
-9553.86
-9555.54
-9557.29
-9559.11
-9561.01
-9562.96
-9564.96
-9567.01
-9569.09
-9571.2
-9573.33
-9575.47
-9577.61
-9579.74
-9581.86
-9583.95
-9586.01
-9588.01
-9589.94
-9591.79
-9593.53
-9595.14
-9596.58
-9597.81
-9598.77
-9599.39
-9599.57
-9599.17
-9597.99
-9595.77
-9592.13
-9586.47
-9577.92
-9565.09
-9545.71
-9515.9
-9468.64
-9390.4
-9252.8
-8990.49
-8435.15
-7098.91
-7110.52
-8468.09
-9040.7
-9315.92
-9462.67
-9547.16
-9598.5
-9630.87
-9651.71
-9665.23
-9673.92
-9679.33
-9682.47
-9683.98
-9684.33
-9683.82
-9682.69
-9681.1
-9679.17
-9677
-9674.64
-9672.17
-9669.62
-9667.03
-9664.42
-9661.83
-9659.26
-9656.75
-9654.3
-9651.94
-9649.66
-9647.49
-9645.42
-9643.48
-9641.67
-9640
-9638.47
-9637.09
-9635.87
-9634.81
-9633.92
-9633.19
-9632.63
-9632.25
-9632.04
-9632.01
-9632.15
-9632.46
-9632.94
-9633.6
-9634.41
-9635.39
-9636.52
-9637.8
-9639.23
-9640.8
-9642.5
-9644.32
-9646.25
-9648.3
-9650.44
-9652.67
-9654.99
-9657.38
-9659.83
-9662.33
-9664.87
-9667.45
-9670.06
-9672.67
-9675.29
-9677.91
-9680.5
-9683.06
-9685.57
-9688.02
-9690.39
-9692.66
-9694.8
-9696.78
-9698.56
-9700.08
-9701.29
-9702.08
-9702.36
-9701.94
-9700.62
-9698.08
-9693.87
-9687.34
-9677.49
-9662.77
-9640.7
-9607.08
-9554.46
-9468.67
-9320.61
-9044.05
-8470.11
-7111.2
-7117.25
-8487.55
-9071.16
-9355.27
-9508.88
-9598.5
-9653.61
-9688.68
-9711.42
-9726.23
-9735.77
-9741.69
-9745.07
-9746.65
-9746.9
-9746.2
-9744.79
-9742.86
-9740.54
-9737.93
-9735.13
-9732.19
-9729.16
-9726.09
-9723
-9719.93
-9716.89
-9713.92
-9711.02
-9708.22
-9705.53
-9702.95
-9700.51
-9698.22
-9696.08
-9694.1
-9692.29
-9690.66
-9689.21
-9687.96
-9686.9
-9686.04
-9685.38
-9684.93
-9684.68
-9684.64
-9684.81
-9685.18
-9685.75
-9686.52
-9687.48
-9688.64
-9689.98
-9691.49
-9693.18
-9695.03
-9697.04
-9699.19
-9701.48
-9703.9
-9706.44
-9709.08
-9711.82
-9714.64
-9717.54
-9720.5
-9723.51
-9726.56
-9729.64
-9732.73
-9735.83
-9738.92
-9741.99
-9745.02
-9748
-9750.9
-9753.71
-9756.4
-9758.94
-9761.3
-9763.42
-9765.25
-9766.72
-9767.71
-9768.11
-9767.73
-9766.32
-9763.53
-9758.88
-9751.63
-9740.73
-9724.5
-9700.31
-9663.76
-9607.13
-9515.97
-9360.81
-9075.13
-8489.94
-7118.05
-7121.23
-8499.17
-9089.59
-9379.44
-9537.66
-9630.87
-9688.68
-9725.73
-9749.88
-9765.66
-9775.81
-9782.07
-9785.6
-9787.15
-9787.26
-9786.32
-9784.6
-9782.3
-9779.57
-9776.53
-9773.27
-9769.85
-9766.34
-9762.78
-9759.21
-9755.65
-9752.15
-9748.71
-9745.36
-9742.12
-9739.01
-9736.04
-9733.22
-9730.57
-9728.09
-9725.81
-9723.72
-9721.83
-9720.17
-9718.72
-9717.49
-9716.5
-9715.74
-9715.21
-9714.93
-9714.88
-9715.07
-9715.49
-9716.15
-9717.04
-9718.15
-9719.49
-9721.03
-9722.79
-9724.74
-9726.87
-9729.19
-9731.68
-9734.32
-9737.11
-9740.04
-9743.09
-9746.25
-9749.51
-9752.86
-9756.28
-9759.75
-9763.28
-9766.84
-9770.41
-9773.99
-9777.56
-9781.11
-9784.61
-9788.05
-9791.41
-9794.66
-9797.78
-9800.73
-9803.47
-9805.94
-9808.1
-9809.84
-9811.06
-9811.61
-9811.3
-9809.85
-9806.9
-9801.91
-9794.12
-9782.38
-9764.97
-9739.15
-9700.39
-9640.83
-9545.85
-9385.83
-9094.17
-8501.92
-7122.15
-7123.69
-8506.38
-9101.13
-9394.72
-9556.04
-9651.71
-9711.42
-9749.88
-9775.03
-9791.49
-9802.05
-9808.52
-9812.07
-9813.53
-9813.44
-9812.22
-9810.16
-9807.47
-9804.32
-9800.82
-9797.09
-9793.2
-9789.2
-9785.14
-9781.08
-9777.04
-9773.06
-9769.16
-9765.36
-9761.68
-9758.15
-9754.78
-9751.58
-9748.57
-9745.76
-9743.17
-9740.79
-9738.66
-9736.76
-9735.12
-9733.73
-9732.6
-9731.74
-9731.14
-9730.82
-9730.76
-9730.97
-9731.46
-9732.2
-9733.21
-9734.47
-9735.98
-9737.74
-9739.72
-9741.94
-9744.36
-9746.99
-9749.81
-9752.81
-9755.98
-9759.3
-9762.76
-9766.34
-9770.04
-9773.83
-9777.71
-9781.66
-9785.66
-9789.69
-9793.75
-9797.81
-9801.87
-9805.89
-9809.87
-9813.77
-9817.59
-9821.29
-9824.84
-9828.2
-9831.33
-9834.17
-9836.66
-9838.69
-9840.15
-9840.89
-9840.69
-9839.26
-9836.22
-9831
-9822.8
-9810.45
-9792.15
-9765.09
-9724.69
-9663
-9565.32
-9401.96
-9106.32
-8509.5
-7124.73
-7125.23
-8510.94
-9108.47
-9404.51
-9567.89
-9665.23
-9726.23
-9765.66
-9791.49
-9808.37
-9819.17
-9825.71
-9829.2
-9830.49
-9830.15
-9828.61
-9826.18
-9823.08
-9819.49
-9815.53
-9811.32
-9806.93
-9802.44
-9797.89
-9793.34
-9788.81
-9784.35
-9779.98
-9775.72
-9771.61
-9767.66
-9763.88
-9760.3
-9756.93
-9753.79
-9750.89
-9748.23
-9745.84
-9743.72
-9741.88
-9740.32
-9739.06
-9738.09
-9737.43
-9737.06
-9737
-9737.24
-9737.77
-9738.61
-9739.73
-9741.14
-9742.84
-9744.8
-9747.02
-9749.49
-9752.2
-9755.14
-9758.3
-9761.65
-9765.19
-9768.91
-9772.78
-9776.79
-9780.93
-9785.17
-9789.51
-9793.92
-9798.4
-9802.91
-9807.45
-9812
-9816.54
-9821.04
-9825.5
-9829.87
-9834.15
-9838.3
-9842.28
-9846.07
-9849.59
-9852.81
-9855.64
-9857.98
-9859.71
-9860.66
-9860.61
-9859.26
-9856.2
-9850.84
-9842.37
-9829.57
-9810.62
-9782.66
-9741.07
-9677.85
-9578.26
-9412.61
-9114.27
-8514.43
-7126.4
-7126.22
-8513.84
-9113.15
-9410.77
-9575.49
-9673.92
-9735.77
-9775.81
-9802.05
-9819.17
-9830.05
-9836.54
-9839.89
-9840.95
-9840.31
-9838.42
-9835.59
-9832.06
-9828.01
-9823.58
-9818.88
-9813.99
-9809
-9803.95
-9798.9
-9793.88
-9788.94
-9784.1
-9779.39
-9774.83
-9770.46
-9766.28
-9762.31
-9758.59
-9755.11
-9751.9
-9748.96
-9746.31
-9743.96
-9741.93
-9740.2
-9738.8
-9737.73
-9736.99
-9736.59
-9736.52
-9736.78
-9737.37
-9738.29
-9739.54
-9741.1
-9742.97
-9745.14
-9747.59
-9750.33
-9753.33
-9756.58
-9760.07
-9763.78
-9767.7
-9771.81
-9776.09
-9780.53
-9785.1
-9789.8
-9794.6
-9799.48
-9804.43
-9809.43
-9814.45
-9819.49
-9824.51
-9829.49
-9834.42
-9839.27
-9844.02
-9848.62
-9853.04
-9857.25
-9861.19
-9864.79
-9867.97
-9870.64
-9872.65
-9873.85
-9873.98
-9872.75
-9869.73
-9864.33
-9855.7
-9842.6
-9823.2
-9794.61
-9752.17
-9687.87
-9586.96
-9419.72
-9119.56
-8517.69
-7127.5
-7126.83
-8515.64
-9116.07
-9414.67
-9580.23
-9679.33
-9741.69
-9782.07
-9808.52
-9825.71
-9836.54
-9842.9
-9846.03
-9846.8
-9845.82
-9843.54
-9840.29
-9836.3
-9831.78
-9826.86
-9821.67
-9816.28
-9810.78
-9805.23
-9799.67
-9794.16
-9788.74
-9783.42
-9778.26
-9773.26
-9768.46
-9763.87
-9759.53
-9755.44
-9751.63
-9748.1
-9744.88
-9741.98
-9739.4
-9737.17
-9735.28
-9733.74
-9732.56
-9731.75
-9731.31
-9731.23
-9731.51
-9732.16
-9733.17
-9734.53
-9736.24
-9738.29
-9740.67
-9743.36
-9746.36
-9749.64
-9753.21
-9757.03
-9761.1
-9765.39
-9769.9
-9774.59
-9779.45
-9784.47
-9789.62
-9794.88
-9800.23
-9805.66
-9811.14
-9816.65
-9822.17
-9827.67
-9833.15
-9838.56
-9843.88
-9849.09
-9854.15
-9859.02
-9863.66
-9868.01
-9872
-9875.55
-9878.56
-9880.88
-9882.34
-9882.7
-9881.63
-9878.71
-9873.33
-9864.63
-9851.37
-9831.68
-9802.66
-9759.65
-9694.62
-9592.8
-9424.48
-9123.09
-8519.87
-7128.24
-7127.19
-8516.71
-9117.79
-9416.97
-9583
-9682.47
-9745.07
-9785.6
-9812.07
-9829.2
-9839.89
-9846.03
-9848.87
-9849.31
-9847.95
-9845.25
-9841.55
-9837.1
-9832.09
-9826.68
-9820.98
-9815.08
-9809.07
-9803.01
-9796.95
-9790.95
-9785.03
-9779.25
-9773.62
-9768.18
-9762.95
-9757.96
-9753.24
-9748.79
-9744.63
-9740.8
-9737.29
-9734.13
-9731.33
-9728.89
-9726.84
-9725.16
-9723.88
-9723
-9722.51
-9722.42
-9722.73
-9723.43
-9724.53
-9726.01
-9727.87
-9730.09
-9732.68
-9735.61
-9738.86
-9742.44
-9746.32
-9750.48
-9754.9
-9759.57
-9764.47
-9769.57
-9774.87
-9780.32
-9785.92
-9791.65
-9797.47
-9803.38
-9809.34
-9815.33
-9821.34
-9827.33
-9833.29
-9839.18
-9844.99
-9850.66
-9856.18
-9861.5
-9866.58
-9871.34
-9875.74
-9879.67
-9883.03
-9885.67
-9887.42
-9888.03
-9887.17
-9884.4
-9879.11
-9870.42
-9857.09
-9837.24
-9807.97
-9764.6
-9699.08
-9596.65
-9427.63
-9125.42
-8521.3
-7128.72
-7127.38
-8517.26
-9118.67
-9418.13
-9584.38
-9683.98
-9746.65
-9787.15
-9813.53
-9830.49
-9840.95
-9846.8
-9849.31
-9849.36
-9847.59
-9844.45
-9840.29
-9835.35
-9829.85
-9823.92
-9817.71
-9811.3
-9804.77
-9798.2
-9791.64
-9785.14
-9778.74
-9772.47
-9766.39
-9760.5
-9754.85
-9749.45
-9744.34
-9739.53
-9735.04
-9730.89
-9727.1
-9723.68
-9720.65
-9718.02
-9715.79
-9713.98
-9712.59
-9711.64
-9711.11
-9711.01
-9711.34
-9712.1
-9713.28
-9714.88
-9716.89
-9719.29
-9722.08
-9725.24
-9728.76
-9732.63
-9736.82
-9741.31
-9746.09
-9751.14
-9756.43
-9761.95
-9767.67
-9773.56
-9779.62
-9785.8
-9792.1
-9798.48
-9804.93
-9811.41
-9817.9
-9824.38
-9830.83
-9837.2
-9843.48
-9849.63
-9855.61
-9861.39
-9866.9
-9872.09
-9876.89
-9881.22
-9884.94
-9887.93
-9889.98
-9890.86
-9890.24
-9887.66
-9882.51
-9873.91
-9860.6
-9840.7
-9811.31
-9767.72
-9701.92
-9599.12
-9429.64
-9126.92
-8522.22
-7129.03
-7127.44
-8517.45
-9118.97
-9418.49
-9584.76
-9684.33
-9746.9
-9787.26
-9813.44
-9830.15
-9840.31
-9845.82
-9847.95
-9847.59
-9845.38
-9841.78
-9837.13
-9831.7
-9825.68
-9819.25
-9812.51
-9805.58
-9798.54
-9791.45
-9784.38
-9777.38
-9770.49
-9763.76
-9757.21
-9750.88
-9744.8
-9739
-9733.5
-9728.33
-9723.5
-9719.04
-9714.96
-9711.29
-9708.03
-9705.19
-9702.8
-9700.85
-9699.36
-9698.32
-9697.75
-9697.64
-9698
-9698.81
-9700.08
-9701.8
-9703.95
-9706.53
-9709.53
-9712.93
-9716.71
-9720.86
-9725.36
-9730.19
-9735.32
-9740.75
-9746.44
-9752.36
-9758.51
-9764.85
-9771.35
-9778
-9784.77
-9791.63
-9798.55
-9805.52
-9812.51
-9819.48
-9826.41
-9833.27
-9840.02
-9846.65
-9853.09
-9859.32
-9865.28
-9870.9
-9876.12
-9880.83
-9884.93
-9888.27
-9890.66
-9891.84
-9891.48
-9889.13
-9884.16
-9875.7
-9862.48
-9842.62
-9813.2
-9769.53
-9703.58
-9600.58
-9430.84
-9127.81
-8522.77
-7129.22
-7127.42
-8517.38
-9118.83
-9418.26
-9584.41
-9683.82
-9746.2
-9786.32
-9812.22
-9828.61
-9838.42
-9843.54
-9845.25
-9844.45
-9841.78
-9837.69
-9832.55
-9826.61
-9820.08
-9813.12
-9805.86
-9798.41
-9790.85
-9783.24
-9775.66
-9768.16
-9760.79
-9753.57
-9746.56
-9739.79
-9733.29
-9727.08
-9721.2
-9715.66
-9710.5
-9705.72
-9701.36
-9697.43
-9693.94
-9690.9
-9688.34
-9686.25
-9684.65
-9683.55
-9682.93
-9682.81
-9683.19
-9684.06
-9685.41
-9687.24
-9689.55
-9692.3
-9695.51
-9699.14
-9703.18
-9707.62
-9712.43
-9717.59
-9723.08
-9728.88
-9734.96
-9741.3
-9747.87
-9754.65
-9761.61
-9768.72
-9775.96
-9783.29
-9790.7
-9798.16
-9805.63
-9813.08
-9820.5
-9827.85
-9835.08
-9842.18
-9849.09
-9855.78
-9862.18
-9868.24
-9873.87
-9878.99
-9883.48
-9887.18
-9889.91
-9891.4
-9891.33
-9889.24
-9884.5
-9876.22
-9863.15
-9843.39
-9814.03
-9770.37
-9704.39
-9601.31
-9431.46
-9128.28
-8523.06
-7129.32
-7127.34
-8517.12
-9118.38
-9417.61
-9583.53
-9682.69
-9744.79
-9784.6
-9810.16
-9826.18
-9835.59
-9840.29
-9841.55
-9840.29
-9837.13
-9832.55
-9826.9
-9820.44
-9813.39
-9805.91
-9798.12
-9790.14
-9782.05
-9773.94
-9765.85
-9757.85
-9749.98
-9742.29
-9734.82
-9727.61
-9720.68
-9714.06
-9707.8
-9701.9
-9696.4
-9691.31
-9686.66
-9682.47
-9678.75
-9675.52
-9672.79
-9670.56
-9668.86
-9667.67
-9667.02
-9666.89
-9667.29
-9668.21
-9669.65
-9671.59
-9674.04
-9676.98
-9680.38
-9684.25
-9688.55
-9693.27
-9698.39
-9703.89
-9709.73
-9715.91
-9722.38
-9729.13
-9736.13
-9743.34
-9750.75
-9758.32
-9766.03
-9773.84
-9781.73
-9789.67
-9797.62
-9805.57
-9813.47
-9821.3
-9829.02
-9836.59
-9843.97
-9851.11
-9857.96
-9864.45
-9870.51
-9876.04
-9880.92
-9885
-9888.08
-9889.91
-9890.14
-9888.33
-9883.84
-9875.79
-9862.91
-9843.3
-9814.07
-9770.5
-9704.56
-9601.51
-9431.64
-9128.43
-8523.16
-7129.35
-7127.2
-8516.72
-9117.7
-9416.65
-9582.26
-9681.1
-9742.86
-9782.3
-9807.47
-9823.08
-9832.06
-9836.3
-9837.1
-9835.35
-9831.7
-9826.61
-9820.44
-9813.46
-9805.88
-9797.87
-9789.56
-9781.05
-9772.44
-9763.81
-9755.21
-9746.71
-9738.36
-9730.2
-9722.27
-9714.61
-9707.25
-9700.24
-9693.58
-9687.33
-9681.49
-9676.09
-9671.16
-9666.71
-9662.76
-9659.33
-9656.43
-9654.07
-9652.25
-9651
-9650.3
-9650.16
-9650.57
-9651.55
-9653.07
-9655.13
-9657.72
-9660.83
-9664.45
-9668.54
-9673.1
-9678.11
-9683.54
-9689.36
-9695.56
-9702.11
-9708.97
-9716.13
-9723.55
-9731.2
-9739.06
-9747.09
-9755.26
-9763.55
-9771.92
-9780.34
-9788.78
-9797.21
-9805.6
-9813.91
-9822.1
-9830.14
-9837.99
-9845.59
-9852.89
-9859.82
-9866.31
-9872.25
-9877.53
-9881.99
-9885.43
-9887.6
-9888.16
-9886.65
-9882.44
-9874.64
-9861.98
-9842.58
-9813.51
-9770.08
-9704.27
-9601.3
-9431.51
-9128.35
-8523.12
-7129.34
-7127.04
-8516.22
-9116.86
-9415.45
-9580.71
-9679.17
-9740.54
-9779.57
-9804.32
-9819.49
-9828.01
-9831.78
-9832.09
-9829.85
-9825.68
-9820.08
-9813.39
-9805.88
-9797.78
-9789.23
-9780.39
-9771.36
-9762.23
-9753.07
-9743.97
-9734.97
-9726.14
-9717.5
-9709.12
-9701.02
-9693.24
-9685.82
-9678.79
-9672.17
-9666
-9660.29
-9655.07
-9650.37
-9646.19
-9642.56
-9639.49
-9636.99
-9635.07
-9633.74
-9632.99
-9632.84
-9633.28
-9634.31
-9635.91
-9638.09
-9640.82
-9644.11
-9647.92
-9652.25
-9657.06
-9662.35
-9668.09
-9674.24
-9680.79
-9687.71
-9694.96
-9702.52
-9710.36
-9718.45
-9726.75
-9735.24
-9743.87
-9752.63
-9761.48
-9770.38
-9779.3
-9788.22
-9797.09
-9805.88
-9814.55
-9823.06
-9831.37
-9839.43
-9847.18
-9854.55
-9861.46
-9867.82
-9873.5
-9878.35
-9882.16
-9884.69
-9885.58
-9884.39
-9880.47
-9872.95
-9860.55
-9841.37
-9812.51
-9769.27
-9703.62
-9600.81
-9431.14
-9128.1
-8522.97
-7129.29
-7126.84
-8515.64
-9115.9
-9414.09
-9578.95
-9677
-9737.93
-9776.53
-9800.82
-9815.53
-9823.58
-9826.86
-9826.68
-9823.92
-9819.25
-9813.12
-9805.91
-9797.87
-9789.23
-9780.16
-9770.79
-9761.23
-9751.58
-9741.91
-9732.31
-9722.81
-9713.49
-9704.39
-9695.55
-9687.01
-9678.82
-9671
-9663.58
-9656.61
-9650.1
-9644.09
-9638.59
-9633.63
-9629.23
-9625.4
-9622.16
-9619.52
-9617.5
-9616.09
-9615.3
-9615.14
-9615.59
-9616.67
-9618.36
-9620.64
-9623.52
-9626.98
-9630.99
-9635.55
-9640.62
-9646.18
-9652.22
-9658.7
-9665.6
-9672.89
-9680.52
-9688.49
-9696.75
-9705.26
-9714.01
-9722.94
-9732.04
-9741.27
-9750.59
-9759.97
-9769.37
-9778.76
-9788.11
-9797.38
-9806.52
-9815.51
-9824.28
-9832.8
-9840.99
-9848.8
-9856.14
-9862.92
-9869
-9874.24
-9878.43
-9881.32
-9882.56
-9881.69
-9878.08
-9870.85
-9858.72
-9839.8
-9811.18
-9768.16
-9702.71
-9600.09
-9430.6
-9127.72
-8522.75
-7129.21
-7126.64
-8515.01
-9114.85
-9412.62
-9577.04
-9674.64
-9735.13
-9773.27
-9797.09
-9811.32
-9818.88
-9821.67
-9820.98
-9817.71
-9812.51
-9805.86
-9798.12
-9789.56
-9780.39
-9770.79
-9760.89
-9750.81
-9740.64
-9730.47
-9720.36
-9710.38
-9700.58
-9691.01
-9681.72
-9672.74
-9664.13
-9655.91
-9648.13
-9640.8
-9633.96
-9627.64
-9621.86
-9616.65
-9612.02
-9608
-9604.59
-9601.82
-9599.68
-9598.2
-9597.37
-9597.19
-9597.67
-9598.79
-9600.56
-9602.96
-9605.98
-9609.6
-9613.81
-9618.59
-9623.92
-9629.76
-9636.1
-9642.9
-9650.14
-9657.79
-9665.81
-9674.17
-9682.84
-9691.79
-9700.97
-9710.36
-9719.91
-9729.6
-9739.39
-9749.24
-9759.12
-9768.99
-9778.81
-9788.55
-9798.17
-9807.62
-9816.85
-9825.82
-9834.46
-9842.71
-9850.48
-9857.67
-9864.15
-9869.78
-9874.35
-9877.61
-9879.2
-9878.67
-9875.38
-9868.46
-9856.61
-9837.97
-9809.61
-9766.83
-9701.62
-9599.2
-9429.92
-9127.24
-8522.46
-7129.12
-7126.41
-8514.35
-9113.74
-9411.06
-9575.02
-9672.17
-9732.19
-9769.85
-9793.2
-9806.93
-9813.99
-9816.28
-9815.08
-9811.3
-9805.58
-9798.41
-9790.14
-9781.05
-9771.36
-9761.23
-9750.81
-9740.21
-9729.53
-9718.85
-9708.25
-9697.78
-9687.5
-9677.47
-9667.74
-9658.34
-9649.31
-9640.7
-9632.54
-9624.86
-9617.7
-9611.07
-9605.02
-9599.55
-9594.7
-9590.48
-9586.91
-9584
-9581.76
-9580.2
-9579.33
-9579.13
-9579.63
-9580.8
-9582.65
-9585.16
-9588.31
-9592.11
-9596.51
-9601.51
-9607.09
-9613.2
-9619.84
-9626.96
-9634.54
-9642.55
-9650.95
-9659.71
-9668.78
-9678.15
-9687.76
-9697.59
-9707.6
-9717.75
-9728
-9738.32
-9748.67
-9759.01
-9769.3
-9779.51
-9789.59
-9799.5
-9809.19
-9818.61
-9827.69
-9836.37
-9844.57
-9852.17
-9859.06
-9865.08
-9870.03
-9873.65
-9875.6
-9875.41
-9872.45
-9865.84
-9854.3
-9835.94
-9807.85
-9765.34
-9700.37
-9598.2
-9429.16
-9126.7
-8522.14
-7129.01
-7126.18
-8513.66
-9112.59
-9409.45
-9572.94
-9669.62
-9729.16
-9766.34
-9789.2
-9802.44
-9809
-9810.78
-9809.07
-9804.77
-9798.54
-9790.85
-9782.05
-9772.44
-9762.23
-9751.58
-9740.64
-9729.53
-9718.34
-9707.17
-9696.07
-9685.12
-9674.38
-9663.9
-9653.72
-9643.89
-9634.46
-9625.46
-9616.93
-9608.91
-9601.42
-9594.5
-9588.17
-9582.46
-9577.38
-9572.97
-9569.24
-9566.19
-9563.85
-9562.21
-9561.29
-9561.09
-9561.6
-9562.82
-9564.74
-9567.36
-9570.65
-9574.61
-9579.21
-9584.43
-9590.24
-9596.63
-9603.56
-9610.99
-9618.91
-9627.27
-9636.04
-9645.19
-9654.67
-9664.45
-9674.49
-9684.76
-9695.21
-9705.81
-9716.52
-9727.3
-9738.11
-9748.92
-9759.68
-9770.35
-9780.89
-9791.25
-9801.39
-9811.25
-9820.78
-9829.88
-9838.5
-9846.51
-9853.81
-9860.22
-9865.55
-9869.54
-9871.84
-9871.99
-9869.37
-9863.07
-9851.84
-9833.78
-9805.98
-9763.74
-9699.04
-9597.12
-9428.32
-9126.11
-8521.79
-7128.89
-7125.95
-8512.96
-9111.42
-9407.8
-9570.83
-9667.03
-9726.09
-9762.78
-9785.14
-9797.89
-9803.95
-9805.23
-9803.01
-9798.2
-9791.45
-9783.24
-9773.94
-9763.81
-9753.07
-9741.91
-9730.47
-9718.85
-9707.17
-9695.5
-9683.92
-9672.5
-9661.3
-9650.36
-9639.75
-9629.51
-9619.67
-9610.29
-9601.4
-9593.04
-9585.23
-9578.01
-9571.41
-9565.45
-9560.17
-9555.56
-9551.66
-9548.48
-9546.04
-9544.33
-9543.36
-9543.14
-9543.67
-9544.94
-9546.94
-9549.66
-9553.08
-9557.2
-9561.99
-9567.42
-9573.48
-9580.13
-9587.34
-9595.09
-9603.34
-9612.05
-9621.18
-9630.71
-9640.59
-9650.78
-9661.24
-9671.94
-9682.83
-9693.87
-9705.03
-9716.27
-9727.54
-9738.8
-9750.01
-9761.14
-9772.13
-9782.95
-9793.53
-9803.83
-9813.78
-9823.32
-9832.34
-9840.77
-9848.46
-9855.25
-9860.96
-9865.32
-9867.97
-9868.47
-9866.18
-9860.21
-9849.29
-9831.53
-9804.01
-9762.06
-9697.63
-9595.98
-9427.44
-9125.48
-8521.41
-7128.77
-7125.72
-8512.25
-9110.24
-9406.15
-9568.7
-9664.42
-9723
-9759.21
-9781.08
-9793.34
-9798.9
-9799.67
-9796.95
-9791.64
-9784.38
-9775.66
-9765.85
-9755.21
-9743.97
-9732.31
-9720.36
-9708.25
-9696.07
-9683.92
-9671.87
-9659.98
-9648.33
-9636.95
-9625.92
-9615.26
-9605.03
-9595.28
-9586.03
-9577.33
-9569.21
-9561.7
-9554.84
-9548.64
-9543.13
-9538.34
-9534.29
-9530.97
-9528.42
-9526.64
-9525.63
-9525.4
-9525.94
-9527.25
-9529.32
-9532.14
-9535.7
-9539.98
-9544.95
-9550.59
-9556.89
-9563.79
-9571.29
-9579.34
-9587.91
-9596.96
-9606.46
-9616.36
-9626.62
-9637.21
-9648.09
-9659.21
-9670.53
-9682.01
-9693.61
-9705.29
-9717.01
-9728.72
-9740.38
-9751.96
-9763.39
-9774.65
-9785.67
-9796.4
-9806.78
-9816.73
-9826.16
-9834.99
-9843.07
-9850.25
-9856.33
-9861.05
-9864.05
-9864.9
-9862.94
-9857.29
-9846.68
-9829.22
-9802
-9760.33
-9696.18
-9594.81
-9426.53
-9124.84
-8521.03
-7128.64
-7125.48
-8511.55
-9109.07
-9404.51
-9566.58
-9661.83
-9719.93
-9755.65
-9777.04
-9788.81
-9793.88
-9794.16
-9790.95
-9785.14
-9777.38
-9768.16
-9757.85
-9746.71
-9734.97
-9722.81
-9710.38
-9697.78
-9685.12
-9672.5
-9659.98
-9647.64
-9635.54
-9623.74
-9612.29
-9601.23
-9590.62
-9580.49
-9570.9
-9561.87
-9553.44
-9545.65
-9538.52
-9532.09
-9526.37
-9521.4
-9517.18
-9513.74
-9511.09
-9509.23
-9508.18
-9507.93
-9508.49
-9509.84
-9511.98
-9514.9
-9518.59
-9523.02
-9528.17
-9534.02
-9540.54
-9547.7
-9555.47
-9563.82
-9572.7
-9582.09
-9591.93
-9602.2
-9612.85
-9623.83
-9635.11
-9646.64
-9658.38
-9670.29
-9682.33
-9694.44
-9706.6
-9718.75
-9730.85
-9742.86
-9754.73
-9766.42
-9777.87
-9789.02
-9799.81
-9810.17
-9820.01
-9829.22
-9837.69
-9845.25
-9851.69
-9856.77
-9860.12
-9861.3
-9859.67
-9854.34
-9844.05
-9826.89
-9799.97
-9758.58
-9694.72
-9593.62
-9425.61
-9124.18
-8520.63
-7128.51
-7125.25
-8510.85
-9107.91
-9402.88
-9564.49
-9659.26
-9716.89
-9752.15
-9773.06
-9784.35
-9788.94
-9788.74
-9785.03
-9778.74
-9770.49
-9760.79
-9749.98
-9738.36
-9726.14
-9713.49
-9700.58
-9687.5
-9674.38
-9661.3
-9648.33
-9635.54
-9623.01
-9610.79
-9598.93
-9587.48
-9576.49
-9566
-9556.07
-9546.72
-9537.99
-9529.92
-9522.54
-9515.87
-9509.95
-9504.8
-9500.43
-9496.86
-9494.11
-9492.18
-9491.09
-9490.82
-9491.39
-9492.78
-9494.99
-9498.01
-9501.82
-9506.4
-9511.72
-9517.77
-9524.52
-9531.93
-9539.97
-9548.6
-9557.79
-9567.5
-9577.69
-9588.31
-9599.33
-9610.69
-9622.37
-9634.3
-9646.45
-9658.78
-9671.23
-9683.77
-9696.36
-9708.93
-9721.47
-9733.9
-9746.2
-9758.31
-9770.17
-9781.73
-9792.93
-9803.69
-9813.92
-9823.52
-9832.36
-9840.29
-9847.09
-9852.52
-9856.22
-9857.73
-9856.42
-9851.41
-9841.42
-9824.56
-9797.93
-9756.84
-9693.25
-9592.42
-9424.69
-9123.52
-8520.24
-7128.38
-7125.02
-8510.17
-9106.77
-9401.29
-9562.44
-9656.75
-9713.92
-9748.71
-9769.16
-9779.98
-9784.1
-9783.42
-9779.25
-9772.47
-9763.76
-9753.57
-9742.29
-9730.2
-9717.5
-9704.39
-9691.01
-9677.47
-9663.9
-9650.36
-9636.95
-9623.74
-9610.79
-9598.15
-9585.9
-9574.07
-9562.71
-9551.88
-9541.61
-9531.95
-9522.93
-9514.59
-9506.96
-9500.07
-9493.95
-9488.62
-9484.1
-9480.41
-9477.56
-9475.56
-9474.42
-9474.14
-9474.72
-9476.15
-9478.43
-9481.54
-9485.46
-9490.19
-9495.68
-9501.93
-9508.89
-9516.53
-9524.83
-9533.75
-9543.24
-9553.26
-9563.78
-9574.75
-9586.12
-9597.86
-9609.92
-9622.24
-9634.79
-9647.52
-9660.39
-9673.34
-9686.34
-9699.33
-9712.28
-9725.13
-9737.84
-9750.36
-9762.63
-9774.59
-9786.18
-9797.33
-9807.94
-9817.92
-9827.13
-9835.41
-9842.57
-9848.33
-9852.37
-9854.2
-9853.21
-9848.51
-9838.82
-9822.26
-9795.92
-9755.1
-9691.79
-9591.24
-9423.77
-9122.87
-8519.85
-7128.25
-7124.8
-8509.51
-9105.66
-9399.73
-9560.44
-9654.3
-9711.02
-9745.36
-9765.36
-9775.72
-9779.39
-9778.26
-9773.62
-9766.39
-9757.21
-9746.56
-9734.82
-9722.27
-9709.12
-9695.55
-9681.72
-9667.74
-9653.72
-9639.75
-9625.92
-9612.29
-9598.93
-9585.9
-9573.26
-9561.06
-9549.35
-9538.18
-9527.59
-9517.62
-9508.32
-9499.72
-9491.85
-9484.74
-9478.42
-9472.92
-9468.25
-9464.44
-9461.5
-9459.43
-9458.25
-9457.95
-9458.54
-9460.01
-9462.35
-9465.55
-9469.59
-9474.45
-9480.11
-9486.54
-9493.71
-9501.59
-9510.14
-9519.32
-9529.1
-9539.43
-9550.27
-9561.57
-9573.3
-9585.39
-9597.82
-9610.52
-9623.45
-9636.58
-9649.84
-9663.19
-9676.59
-9689.99
-9703.34
-9716.59
-9729.7
-9742.61
-9755.27
-9767.63
-9779.6
-9791.12
-9802.11
-9812.44
-9822.01
-9830.64
-9838.14
-9844.24
-9848.59
-9850.75
-9850.07
-9845.67
-9836.27
-9820
-9793.94
-9753.4
-9690.36
-9590.07
-9422.87
-9122.23
-8519.47
-7128.12
-7124.59
-8508.86
-9104.59
-9398.23
-9558.5
-9651.94
-9708.22
-9742.12
-9761.68
-9771.61
-9774.83
-9773.26
-9768.18
-9760.5
-9750.88
-9739.79
-9727.61
-9714.61
-9701.02
-9687.01
-9672.74
-9658.34
-9643.89
-9629.51
-9615.26
-9601.23
-9587.48
-9574.07
-9561.06
-9548.5
-9536.45
-9524.95
-9514.05
-9503.8
-9494.22
-9485.36
-9477.26
-9469.94
-9463.44
-9457.77
-9452.96
-9449.03
-9445.99
-9443.86
-9442.64
-9442.32
-9442.92
-9444.43
-9446.83
-9450.11
-9454.26
-9459.26
-9465.07
-9471.68
-9479.05
-9487.15
-9495.94
-9505.38
-9515.44
-9526.06
-9537.21
-9548.83
-9560.89
-9573.34
-9586.11
-9599.18
-9612.49
-9625.99
-9639.63
-9653.37
-9667.15
-9680.94
-9694.68
-9708.32
-9721.81
-9735.11
-9748.15
-9760.87
-9773.22
-9785.1
-9796.44
-9807.13
-9817.04
-9826.01
-9833.83
-9840.25
-9844.93
-9847.39
-9847.01
-9842.9
-9833.79
-9817.8
-9792.01
-9751.74
-9688.96
-9588.93
-9421.99
-9121.6
-8519.09
-7128
-7124.38
-8508.24
-9103.55
-9396.78
-9556.64
-9649.66
-9705.53
-9739.01
-9758.15
-9767.66
-9770.46
-9768.46
-9762.95
-9754.85
-9744.8
-9733.29
-9720.68
-9707.25
-9693.24
-9678.82
-9664.13
-9649.31
-9634.46
-9619.67
-9605.03
-9590.62
-9576.49
-9562.71
-9549.35
-9536.45
-9524.07
-9512.26
-9501.06
-9490.53
-9480.69
-9471.59
-9463.26
-9455.74
-9449.05
-9443.22
-9438.28
-9434.24
-9431.11
-9428.91
-9427.65
-9427.32
-9427.92
-9429.46
-9431.92
-9435.28
-9439.54
-9444.66
-9450.62
-9457.4
-9464.96
-9473.27
-9482.29
-9491.99
-9502.31
-9513.21
-9524.65
-9536.59
-9548.97
-9561.74
-9574.86
-9588.28
-9601.94
-9615.8
-9629.81
-9643.92
-9658.07
-9672.23
-9686.34
-9700.36
-9714.22
-9727.88
-9741.28
-9754.37
-9767.07
-9779.3
-9790.98
-9802.01
-9812.25
-9821.54
-9829.68
-9836.41
-9841.38
-9844.14
-9844.05
-9840.22
-9831.39
-9815.67
-9790.14
-9750.13
-9687.61
-9587.83
-9421.13
-9120.99
-8518.73
-7127.88
-7124.18
-8507.65
-9102.57
-9395.4
-9554.86
-9647.49
-9702.95
-9736.04
-9754.78
-9763.88
-9766.28
-9763.87
-9757.96
-9749.45
-9739
-9727.08
-9714.06
-9700.24
-9685.82
-9671
-9655.91
-9640.7
-9625.46
-9610.29
-9595.28
-9580.49
-9566
-9551.88
-9538.18
-9524.95
-9512.26
-9500.15
-9488.67
-9477.86
-9467.77
-9458.44
-9449.9
-9442.18
-9435.32
-9429.34
-9424.27
-9420.11
-9416.9
-9414.64
-9413.33
-9412.99
-9413.6
-9415.17
-9417.68
-9421.12
-9425.47
-9430.71
-9436.82
-9443.76
-9451.51
-9460.02
-9469.26
-9479.18
-9489.76
-9500.93
-9512.65
-9524.88
-9537.57
-9550.66
-9564.1
-9577.85
-9591.85
-9606.06
-9620.41
-9634.87
-9649.39
-9663.9
-9678.37
-9692.73
-9706.95
-9720.96
-9734.71
-9748.14
-9761.17
-9773.74
-9785.75
-9797.1
-9807.65
-9817.25
-9825.69
-9832.72
-9837.98
-9841.02
-9841.21
-9837.65
-9829.08
-9813.62
-9788.35
-9748.59
-9686.31
-9586.77
-9420.31
-9120.41
-8518.38
-7127.76
-7123.99
-8507.09
-9101.63
-9394.09
-9553.18
-9645.42
-9700.51
-9733.22
-9751.58
-9760.3
-9762.31
-9759.53
-9753.24
-9744.34
-9733.5
-9721.2
-9707.8
-9693.58
-9678.79
-9663.58
-9648.13
-9632.54
-9616.93
-9601.4
-9586.03
-9570.9
-9556.07
-9541.61
-9527.59
-9514.05
-9501.06
-9488.67
-9476.92
-9465.86
-9455.53
-9445.97
-9437.23
-9429.33
-9422.3
-9416.17
-9410.97
-9406.72
-9403.42
-9401.1
-9399.76
-9399.39
-9400.01
-9401.61
-9404.17
-9407.68
-9412.12
-9417.48
-9423.72
-9430.81
-9438.73
-9447.43
-9456.88
-9467.03
-9477.84
-9489.27
-9501.26
-9513.76
-9526.74
-9540.13
-9553.88
-9567.94
-9582.27
-9596.8
-9611.49
-9626.28
-9641.13
-9655.98
-9670.78
-9685.48
-9700.03
-9714.38
-9728.46
-9742.21
-9755.56
-9768.45
-9780.77
-9792.42
-9803.27
-9813.17
-9821.9
-9829.2
-9834.74
-9838.05
-9838.5
-9835.2
-9826.88
-9811.66
-9786.64
-9747.11
-9685.07
-9585.76
-9419.53
-9119.85
-8518.04
-7127.65
-7123.82
-8506.56
-9100.75
-9392.86
-9551.59
-9643.48