/*--------------------------------*- C++ -*----------------------------------*\
  =========                 |
  \\      /  F ield         | OpenFOAM: The Open Source CFD Toolbox
   \\    /   O peration     | Website:  https://openfoam.org
    \\  /    A nd           | Version:  9
     \\/     M anipulation  |
\*---------------------------------------------------------------------------*/
FoamFile
{
    format      ascii;
    class       volScalarField;
    location    "0.4";
    object      T;
}
// * * * * * * * * * * * * * * * * * * * * * * * * * * * * * * * * * * * * * //

dimensions      [0 0 0 1 0 0 0];

internalField   nonuniform List<scalar> 
200000
(
300.359
300.664
300.837
300.957
301.049
301.124
301.189
301.246
301.297
301.343
301.386
301.426
301.463
301.499
301.533
301.565
301.596
301.626
301.655
301.683
301.71
301.736
301.761
301.785
301.809
301.831
301.853
301.874
301.894
301.913
301.931
301.949
301.965
301.98
301.994
302.007
302.019
302.029
302.038
302.047
302.053
302.059
302.063
302.066
302.068
302.068
302.067
302.065
302.061
302.057
302.051
302.043
302.035
302.025
302.015
302.003
301.991
301.977
301.963
301.947
301.931
301.915
301.897
301.879
301.861
301.842
301.822
301.803
301.782
301.762
301.741
301.72
301.699
301.678
301.657
301.635
301.613
301.592
301.569
301.547
301.524
301.501
301.478
301.454
301.429
301.403
301.377
301.349
301.319
301.287
301.253
301.215
301.173
301.126
301.071
301.005
300.923
300.813
300.649
300.354
300.664
301.399
301.874
302.218
302.488
302.712
302.904
303.073
303.225
303.364
303.492
303.611
303.724
303.831
303.932
304.029
304.122
304.212
304.299
304.382
304.463
304.541
304.616
304.689
304.76
304.828
304.893
304.956
305.016
305.073
305.128
305.179
305.228
305.273
305.315
305.354
305.389
305.421
305.449
305.473
305.494
305.51
305.523
305.532
305.537
305.538
305.535
305.528
305.518
305.503
305.485
305.464
305.438
305.41
305.378
305.343
305.305
305.265
305.221
305.175
305.127
305.077
305.025
304.971
304.915
304.859
304.8
304.741
304.68
304.619
304.557
304.495
304.431
304.368
304.303
304.239
304.174
304.108
304.042
303.974
303.907
303.838
303.767
303.695
303.621
303.544
303.464
303.38
303.291
303.196
303.094
302.981
302.856
302.715
302.551
302.356
302.115
301.8
301.354
300.649
300.837
301.874
302.593
303.135
303.571
303.935
304.25
304.528
304.78
305.01
305.222
305.421
305.608
305.786
305.954
306.116
306.271
306.42
306.564
306.703
306.838
306.968
307.093
307.215
307.332
307.446
307.555
307.659
307.759
307.855
307.946
308.032
308.113
308.188
308.258
308.323
308.382
308.434
308.481
308.522
308.556
308.584
308.605
308.62
308.628
308.63
308.625
308.614
308.596
308.572
308.542
308.506
308.464
308.416
308.363
308.305
308.242
308.174
308.102
308.025
307.945
307.862
307.775
307.685
307.592
307.497
307.4
307.301
307.2
307.098
306.995
306.89
306.785
306.679
306.572
306.464
306.355
306.246
306.135
306.024
305.911
305.796
305.678
305.558
305.435
305.307
305.174
305.035
304.887
304.73
304.56
304.374
304.167
303.935
303.667
303.35
302.964
302.47
301.8
300.813
300.957
302.218
303.135
303.85
304.434
304.93
305.362
305.746
306.094
306.413
306.709
306.986
307.247
307.494
307.73
307.955
308.172
308.38
308.582
308.776
308.964
309.146
309.322
309.492
309.657
309.815
309.968
310.114
310.254
310.388
310.515
310.636
310.749
310.855
310.953
311.043
311.126
311.2
311.265
311.322
311.37
311.409
311.439
311.459
311.471
311.473
311.467
311.451
311.426
311.392
311.35
311.3
311.241
311.174
311.1
311.019
310.93
310.835
310.734
310.627
310.515
310.397
310.276
310.15
310.02
309.887
309.751
309.612
309.471
309.328
309.184
309.038
308.89
308.741
308.591
308.441
308.289
308.135
307.981
307.824
307.666
307.506
307.342
307.174
307.002
306.823
306.638
306.444
306.238
306.019
305.783
305.526
305.241
304.921
304.555
304.126
303.609
302.963
302.114
300.922
301.049
302.488
303.571
304.434
305.153
305.77
306.313
306.798
307.239
307.644
308.021
308.375
308.708
309.025
309.327
309.616
309.894
310.161
310.42
310.669
310.911
311.145
311.371
311.59
311.801
312.004
312.201
312.389
312.569
312.741
312.905
313.06
313.205
313.341
313.468
313.584
313.69
313.785
313.869
313.942
314.004
314.054
314.092
314.119
314.134
314.137
314.128
314.108
314.076
314.033
313.979
313.914
313.838
313.753
313.657
313.552
313.438
313.316
313.186
313.049
312.904
312.753
312.597
312.435
312.268
312.097
311.922
311.743
311.562
311.378
311.192
311.004
310.814
310.623
310.431
310.237
310.041
309.844
309.646
309.445
309.242
309.036
308.825
308.61
308.39
308.161
307.924
307.676
307.413
307.134
306.834
306.507
306.148
305.745
305.288
304.757
304.125
303.349
302.355
301.005
301.124
302.712
303.935
304.93
305.77
306.499
307.145
307.726
308.256
308.746
309.202
309.63
310.035
310.42
310.787
311.14
311.478
311.804
312.12
312.424
312.719
313.004
313.281
313.548
313.806
314.055
314.294
314.524
314.745
314.955
315.155
315.344
315.522
315.689
315.843
315.986
316.115
316.231
316.334
316.424
316.499
316.56
316.608
316.64
316.658
316.662
316.652
316.627
316.588
316.535
316.469
316.39
316.297
316.192
316.075
315.947
315.808
315.659
315.5
315.331
315.155
314.97
314.779
314.58
314.376
314.167
313.953
313.735
313.513
313.289
313.061
312.831
312.599
312.366
312.13
311.893
311.655
311.414
311.172
310.927
310.679
310.427
310.171
309.909
309.64
309.363
309.074
308.773
308.455
308.117
307.755
307.362
306.931
306.451
305.909
305.286
304.552
303.664
302.549
301.07
301.189
302.904
304.25
305.362
306.313
307.145
307.887
308.559
309.176
309.746
310.279
310.781
311.255
311.707
312.139
312.554
312.952
313.337
313.708
314.068
314.416
314.752
315.078
315.394
315.699
315.993
316.276
316.548
316.809
317.057
317.294
317.517
317.728
317.925
318.107
318.275
318.429
318.566
318.688
318.794
318.883
318.956
319.011
319.05
319.072
319.076
319.064
319.035
318.989
318.926
318.848
318.754
318.644
318.521
318.382
318.231
318.066
317.889
317.701
317.502
317.293
317.075
316.849
316.614
316.373
316.126
315.873
315.615
315.353
315.087
314.818
314.546
314.272
313.996
313.718
313.438
313.156
312.872
312.586
312.297
312.004
311.708
311.406
311.097
310.781
310.455
310.116
309.763
309.391
308.997
308.575
308.118
307.62
307.067
306.447
305.739
304.914
303.929
302.711
301.125
301.246
303.073
304.528
305.746
306.798
307.726
308.559
309.318
310.016
310.665
311.272
311.845
312.388
312.906
313.402
313.878
314.336
314.778
315.206
315.619
316.02
316.408
316.784
317.148
317.499
317.838
318.165
318.479
318.78
319.067
319.339
319.598
319.841
320.068
320.279
320.473
320.65
320.809
320.949
321.072
321.175
321.259
321.323
321.368
321.393
321.398
321.384
321.35
321.297
321.225
321.135
321.026
320.9
320.757
320.597
320.422
320.232
320.028
319.811
319.581
319.34
319.088
318.826
318.555
318.277
317.991
317.699
317.401
317.099
316.792
316.482
316.168
315.852
315.533
315.212
314.889
314.564
314.237
313.907
313.574
313.237
312.896
312.549
312.195
311.831
311.457
311.07
310.665
310.241
309.792
309.312
308.796
308.233
307.613
306.921
306.136
305.23
304.159
302.85
301.171
301.297
303.225
304.78
306.094
307.239
308.256
309.176
310.016
310.793
311.517
312.196
312.839
313.449
314.032
314.59
315.126
315.643
316.143
316.626
317.094
317.547
317.986
318.411
318.823
319.221
319.605
319.976
320.331
320.672
320.997
321.307
321.599
321.875
322.133
322.372
322.592
322.793
322.973
323.133
323.271
323.388
323.484
323.557
323.607
323.636
323.642
323.626
323.588
323.528
323.446
323.343
323.22
323.077
322.915
322.734
322.535
322.32
322.088
321.842
321.581
321.308
321.022
320.725
320.418
320.102
319.778
319.447
319.109
318.766
318.418
318.066
317.711
317.353
316.991
316.628
316.262
315.894
315.524
315.15
314.774
314.393
314.007
313.615
313.216
312.806
312.385
311.949
311.496
311.02
310.518
309.984
309.409
308.786
308.103
307.344
306.489
305.509
304.36
302.973
301.212
301.343
303.364
305.01
306.413
307.644
308.746
309.746
310.665
311.517
312.313
313.063
313.773
314.449
315.095
315.714
316.311
316.886
317.442
317.98
318.501
319.007
319.497
319.972
320.431
320.876
321.305
321.719
322.116
322.497
322.861
323.207
323.534
323.842
324.13
324.398
324.644
324.869
325.07
325.249
325.404
325.535
325.642
325.724
325.78
325.812
325.819
325.801
325.759
325.691
325.6
325.486
325.348
325.188
325.006
324.804
324.582
324.341
324.082
323.806
323.515
323.208
322.889
322.557
322.214
321.86
321.498
321.127
320.75
320.366
319.977
319.584
319.186
318.786
318.382
317.976
317.568
317.157
316.743
316.326
315.906
315.482
315.053
314.616
314.172
313.717
313.25
312.767
312.265
311.74
311.186
310.599
309.97
309.29
308.547
307.726
306.806
305.759
304.541
303.082
301.249
301.386
303.492
305.222
306.709
308.021
309.202
310.279
311.272
312.196
313.063
313.881
314.656
315.396
316.104
316.784
317.44
318.072
318.684
319.277
319.852
320.409
320.95
321.474
321.981
322.472
322.946
323.403
323.842
324.263
324.665
325.048
325.41
325.75
326.069
326.365
326.638
326.886
327.109
327.307
327.478
327.623
327.741
327.832
327.895
327.931
327.938
327.918
327.871
327.797
327.696
327.57
327.417
327.24
327.039
326.816
326.57
326.303
326.017
325.712
325.389
325.051
324.697
324.33
323.95
323.559
323.159
322.749
322.331
321.907
321.477
321.042
320.603
320.16
319.714
319.265
318.814
318.36
317.904
317.445
316.981
316.514
316.041
315.561
315.072
314.572
314.06
313.531
312.982
312.409
311.806
311.168
310.486
309.752
308.953
308.074
307.094
305.985
304.704
303.18
301.282
301.426
303.611
305.421
306.986
308.375
309.63
310.781
311.845
312.839
313.773
314.656
315.496
316.299
317.068
317.807
318.521
319.21
319.877
320.524
321.152
321.761
322.351
322.924
323.479
324.016
324.535
325.035
325.516
325.977
326.418
326.837
327.233
327.606
327.956
328.28
328.579
328.851
329.096
329.313
329.501
329.66
329.789
329.889
329.958
329.997
330.006
329.984
329.933
329.851
329.741
329.602
329.435
329.241
329.021
328.776
328.507
328.214
327.9
327.566
327.213
326.842
326.454
326.051
325.635
325.207
324.768
324.319
323.861
323.396
322.925
322.449
321.967
321.483
320.994
320.503
320.009
319.513
319.014
318.512
318.006
317.495
316.979
316.455
315.923
315.38
314.822
314.248
313.654
313.034
312.384
311.697
310.966
310.18
309.328
308.395
307.359
306.193
304.853
303.27
301.312
301.463
303.724
305.608
307.247
308.708
310.035
311.255
312.388
313.449
314.449
315.396
316.299
317.162
317.991
318.789
319.559
320.305
321.027
321.727
322.407
323.067
323.708
324.329
324.932
325.515
326.078
326.621
327.144
327.645
328.124
328.579
329.01
329.416
329.796
330.149
330.474
330.77
331.036
331.272
331.477
331.65
331.791
331.9
331.975
332.018
332.027
332.004
331.948
331.86
331.74
331.589
331.407
331.196
330.957
330.69
330.397
330.079
329.738
329.374
328.99
328.586
328.165
327.727
327.274
326.808
326.33
325.842
325.345
324.839
324.327
323.809
323.286
322.759
322.229
321.695
321.159
320.62
320.078
319.534
318.985
318.432
317.873
317.307
316.732
316.145
315.544
314.926
314.287
313.622
312.926
312.192
311.413
310.578
309.676
308.692
307.604
306.385
304.991
303.353
301.34
301.499
303.831
305.786
307.494
309.025
310.42
311.707
312.906
314.032
315.095
316.104
317.068
317.991
318.878
319.734
320.561
321.361
322.137
322.891
323.622
324.333
325.023
325.693
326.342
326.971
327.579
328.166
328.73
329.271
329.787
330.279
330.745
331.184
331.594
331.975
332.327
332.647
332.935
333.19
333.411
333.599
333.751
333.868
333.95
333.996
334.007
333.982
333.921
333.826
333.696
333.533
333.337
333.11
332.851
332.563
332.246
331.903
331.534
331.141
330.725
330.289
329.833
329.36
328.871
328.368
327.852
327.324
326.786
326.24
325.687
325.128
324.563
323.994
323.422
322.846
322.267
321.686
321.103
320.516
319.925
319.33
318.728
318.12
317.502
316.873
316.23
315.569
314.886
314.177
313.437
312.658
311.833
310.952
310.002
308.969
307.833
306.563
305.119
303.43
301.365
301.533
303.932
305.954
307.73
309.327
310.787
312.139
313.402
314.59
315.714
316.784
317.807
318.789
319.734
320.646
321.528
322.383
323.212
324.018
324.801
325.562
326.301
327.019
327.716
328.39
329.042
329.671
330.277
330.857
331.412
331.941
332.441
332.912
333.353
333.763
334.14
334.484
334.794
335.068
335.307
335.508
335.672
335.798
335.886
335.936
335.947
335.921
335.856
335.754
335.615
335.439
335.229
334.984
334.706
334.397
334.057
333.688
333.291
332.869
332.422
331.954
331.464
330.956
330.43
329.889
329.335
328.768
328.19
327.604
327.01
326.409
325.803
325.192
324.577
323.96
323.339
322.716
322.09
321.461
320.829
320.192
319.549
318.899
318.24
317.569
316.883
316.18
315.455
314.704
313.92
313.098
312.229
311.303
310.308
309.23
308.047
306.73
305.239
303.502
301.389
301.565
304.029
306.116
307.955
309.616
311.14
312.554
313.878
315.126
316.311
317.44
318.521
319.559
320.561
321.528
322.465
323.373
324.255
325.113
325.946
326.757
327.545
328.311
329.054
329.774
330.47
331.142
331.788
332.408
333.001
333.566
334.1
334.604
335.076
335.514
335.918
336.286
336.617
336.91
337.165
337.381
337.556
337.692
337.786
337.839
337.852
337.823
337.754
337.645
337.497
337.31
337.085
336.823
336.526
336.195
335.831
335.437
335.013
334.561
334.084
333.583
333.059
332.516
331.954
331.375
330.782
330.176
329.559
328.932
328.297
327.655
327.007
326.355
325.699
325.039
324.377
323.712
323.044
322.374
321.7
321.022
320.338
319.647
318.946
318.234
317.508
316.764
315.998
315.205
314.38
313.515
312.604
311.635
310.598
309.475
308.248
306.888
305.351
303.57
301.412
301.596
304.122
306.271
308.172
309.894
311.478
312.952
314.336
315.643
316.886
318.072
319.21
320.305
321.361
322.383
323.373
324.334
325.269
326.177
327.061
327.921
328.758
329.57
330.359
331.124
331.864
332.578
333.266
333.925
334.556
335.157
335.726
336.262
336.764
337.23
337.66
338.052
338.405
338.718
338.989
339.219
339.406
339.55
339.651
339.708
339.721
339.691
339.618
339.502
339.344
339.145
338.906
338.627
338.311
337.959
337.572
337.152
336.701
336.22
335.712
335.178
334.621
334.042
333.444
332.828
332.197
331.552
330.895
330.228
329.552
328.869
328.18
327.486
326.788
326.087
325.384
324.677
323.968
323.257
322.542
321.823
321.098
320.366
319.626
318.873
318.107
317.323
316.516
315.683
314.817
313.913
312.96
311.951
310.872
309.708
308.439
307.036
305.458
303.634
301.433
301.626
304.212
306.42
308.38
310.161
311.804
313.337
314.778
316.143
317.442
318.684
319.877
321.027
322.137
323.212
324.255
325.269
326.254
327.213
328.147
329.055
329.94
330.799
331.634
332.443
333.227
333.983
334.711
335.41
336.078
336.715
337.318
337.886
338.419
338.913
339.369
339.785
340.159
340.491
340.779
341.023
341.222
341.375
341.482
341.543
341.557
341.526
341.448
341.326
341.158
340.947
340.694
340.399
340.064
339.69
339.28
338.834
338.356
337.846
337.307
336.741
336.15
335.537
334.903
334.25
333.58
332.897
332.2
331.493
330.777
330.053
329.323
328.588
327.849
327.106
326.361
325.614
324.864
324.112
323.356
322.597
321.832
321.06
320.28
319.488
318.682
317.859
317.013
316.141
315.236
314.292
313.3
312.251
311.133
309.929
308.62
307.177
305.559
303.694
301.453
301.655
304.299
306.564
308.582
310.42
312.12
313.708
315.206
316.626
317.98
319.277
320.524
321.727
322.891
324.018
325.113
326.177
327.213
328.222
329.204
330.161
331.093
331.999
332.879
333.732
334.558
335.356
336.125
336.863
337.568
338.24
338.878
339.478
340.04
340.563
341.045
341.485
341.88
342.231
342.536
342.794
343.004
343.166
343.28
343.344
343.36
343.327
343.245
343.116
342.939
342.717
342.449
342.137
341.783
341.389
340.955
340.484
339.979
339.44
338.871
338.273
337.649
337
336.33
335.64
334.933
334.211
333.475
332.728
331.972
331.207
330.437
329.661
328.881
328.097
327.311
326.523
325.733
324.94
324.145
323.345
322.541
321.73
320.911
320.08
319.236
318.374
317.49
316.58
315.637
314.655
313.625
312.538
311.382
310.14
308.793
307.312
305.655
303.752
301.473
301.683
304.382
306.703
308.776
310.669
312.424
314.068
315.619
317.094
318.501
319.852
321.152
322.407
323.622
324.801
325.946
327.061
328.147
329.204
330.235
331.239
332.217
333.169
334.094
334.991
335.86
336.699
337.508
338.284
339.027
339.734
340.405
341.037
341.63
342.18
342.688
343.151
343.568
343.938
344.259
344.531
344.753
344.924
345.044
345.112
345.129
345.094
345.009
344.873
344.687
344.453
344.171
343.843
343.47
343.055
342.598
342.103
341.57
341.003
340.403
339.773
339.116
338.433
337.727
337.001
336.256
335.496
334.721
333.935
333.138
332.334
331.523
330.706
329.885
329.062
328.235
327.407
326.577
325.744
324.909
324.071
323.227
322.378
321.52
320.652
319.77
318.87
317.949
317.002
316.022
315.003
313.937
312.813
311.62
310.342
308.958
307.44
305.746
303.807
301.491
301.71
304.463
306.838
308.964
310.911
312.719
314.416
316.02
317.547
319.007
320.409
321.761
323.067
324.333
325.562
326.757
327.921
329.055
330.161
331.239
332.29
333.314
334.311
335.28
336.221
337.131
338.012
338.86
339.674
340.453
341.196
341.9
342.564
343.186
343.764
344.297
344.784
345.222
345.61
345.948
346.234
346.468
346.648
346.774
346.846
346.864
346.828
346.738
346.596
346.401
346.155
345.859
345.515
345.124
344.688
344.208
343.688
343.129
342.534
341.904
341.243
340.552
339.835
339.094
338.332
337.55
336.751
335.938
335.113
334.277
333.433
332.581
331.725
330.864
330
329.134
328.266
327.396
326.524
325.65
324.773
323.892
323.004
322.109
321.203
320.284
319.348
318.391
317.407
316.392
315.337
314.235
313.076
311.848
310.534
309.116
307.563
305.834
303.859
301.509
301.736
304.541
306.968
309.146
311.145
313.004
314.752
316.408
317.986
319.497
320.95
322.351
323.708
325.023
326.301
327.545
328.758
329.94
331.093
332.217
333.314
334.384
335.425
336.437
337.42
338.373
339.293
340.18
341.032
341.848
342.625
343.362
344.057
344.708
345.314
345.872
346.382
346.841
347.248
347.602
347.902
348.147
348.336
348.468
348.544
348.563
348.526
348.433
348.284
348.08
347.823
347.513
347.153
346.744
346.287
345.785
345.241
344.655
344.032
343.372
342.68
341.957
341.206
340.43
339.632
338.813
337.977
337.126
336.262
335.387
334.504
333.613
332.717
331.817
330.913
330.008
329.1
328.192
327.281
326.369
325.454
324.535
323.61
322.678
321.736
320.781
319.809
318.817
317.798
316.748
315.658
314.522
313.329
312.067
310.719
309.267
307.68
305.918
303.91
301.525
301.761
304.616
307.093
309.322
311.371
313.281
315.078
316.784
318.411
319.972
321.474
322.924
324.329
325.693
327.019
328.311
329.57
330.799
331.999
333.169
334.311
335.425
336.51
337.565
338.59
339.583
340.543
341.468
342.357
343.209
344.02
344.789
345.515
346.196
346.828
347.412
347.944
348.424
348.85
349.22
349.533
349.789
349.987
350.126
350.206
350.226
350.187
350.09
349.935
349.723
349.454
349.131
348.755
348.328
347.851
347.327
346.759
346.147
345.496
344.808
344.084
343.33
342.546
341.735
340.901
340.047
339.174
338.285
337.383
336.469
335.547
334.618
333.682
332.743
331.801
330.857
329.911
328.964
328.016
327.066
326.113
325.158
324.197
323.229
322.251
321.261
320.254
319.227
318.174
317.09
315.968
314.798
313.572
312.277
310.897
309.412
307.793
305.998
303.958
301.541
301.785
304.689
307.215
309.492
311.59
313.548
315.394
317.148
318.823
320.431
321.981
323.479
324.932
326.342
327.716
329.054
330.359
331.634
332.879
334.094
335.28
336.437
337.565
338.662
339.728
340.761
341.76
342.723
343.649
344.535
345.38
346.182
346.938
347.646
348.306
348.914
349.469
349.969
350.413
350.799
351.126
351.393
351.6
351.745
351.828
351.85
351.81
351.709
351.548
351.327
351.048
350.712
350.32
349.875
349.379
348.833
348.24
347.604
346.925
346.208
345.455
344.668
343.852
343.007
342.139
341.248
340.339
339.413
338.474
337.523
336.562
335.595
334.621
333.644
332.663
331.681
330.697
329.713
328.727
327.741
326.752
325.76
324.764
323.76
322.748
321.723
320.683
319.623
318.537
317.42
316.265
315.064
313.806
312.479
311.068
309.551
307.901
306.076
304.004
301.557
301.809
304.76
307.332
309.657
311.801
313.806
315.699
317.499
319.221
320.876
322.472
324.016
325.515
326.971
328.39
329.774
331.124
332.443
333.732
334.991
336.221
337.42
338.59
339.728
340.834
341.906
342.943
343.943
344.905
345.826
346.703
347.536
348.322
349.059
349.744
350.377
350.954
351.474
351.936
352.337
352.678
352.956
353.171
353.323
353.41
353.433
353.392
353.288
353.12
352.891
352.601
352.252
351.845
351.383
350.867
350.3
349.685
349.023
348.318
347.572
346.789
345.972
345.123
344.246
343.343
342.418
341.473
340.511
339.535
338.546
337.549
336.543
335.533
334.517
333.5
332.48
331.459
330.438
329.416
328.394
327.369
326.342
325.311
324.274
323.228
322.17
321.097
320.004
318.886
317.737
316.551
315.319
314.03
312.673
311.231
309.685
308.005
306.15
304.049
301.572
301.831
304.828
307.446
309.815
312.004
314.055
315.993
317.838
319.605
321.305
322.946
324.535
326.078
327.579
329.042
330.47
331.864
333.227
334.558
335.86
337.131
338.373
339.583
340.761
341.906
343.017
344.091
345.127
346.124
347.078
347.988
348.852
349.667
350.431
351.142
351.798
352.397
352.937
353.416
353.833
354.187
354.476
354.7
354.857
354.948
354.972
354.931
354.823
354.65
354.412
354.112
353.75
353.329
352.849
352.315
351.727
351.089
350.402
349.671
348.898
348.087
347.239
346.359
345.449
344.513
343.553
342.573
341.576
340.564
339.539
338.505
337.463
336.416
335.364
334.31
333.254
332.197
331.14
330.083
329.025
327.966
326.905
325.84
324.769
323.69
322.6
321.495
320.37
319.221
318.042
316.826
315.564
314.245
312.859
311.388
309.813
308.105
306.221
304.091
301.586
301.853
304.893
307.555
309.968
312.201
314.294
316.276
318.165
319.976
321.719
323.403
325.035
326.621
328.166
329.671
331.142
332.578
333.983
335.356
336.699
338.012
339.293
340.543
341.76
342.943
344.091
345.202
346.273
347.304
348.291
349.232
350.126
350.969
351.76
352.496
353.176
353.796
354.355
354.851
355.283
355.65
355.95
356.182
356.345
356.44
356.466
356.423
356.312
356.133
355.888
355.577
355.203
354.767
354.272
353.719
353.111
352.45
351.74
350.984
350.184
349.344
348.467
347.556
346.615
345.646
344.653
343.639
342.607
341.56
340.5
339.431
338.353
337.27
336.182
335.092
334.001
332.909
331.817
330.725
329.634
328.541
327.446
326.349
325.246
324.135
323.013
321.877
320.723
319.544
318.335
317.09
315.799
314.452
313.037
311.539
309.936
308.2
306.289
304.132
301.599
301.874
304.956
307.659
310.114
312.389
314.524
316.548
318.479
320.331
322.116
323.842
325.516
327.144
328.73
330.277
331.788
333.266
334.711
336.125
337.508
338.86
340.18
341.468
342.723
343.943
345.127
346.273
347.379
348.443
349.462
350.434
351.356
352.227
353.044
353.805
354.506
355.147
355.725
356.238
356.685
357.064
357.374
357.615
357.784
357.882
357.91
357.866
357.752
357.568
357.315
356.995
356.609
356.159
355.647
355.077
354.449
353.767
353.034
352.253
351.427
350.56
349.654
348.713
347.741
346.741
345.716
344.669
343.603
342.522
341.428
340.324
339.212
338.093
336.971
335.847
334.721
333.595
332.469
331.344
330.219
329.094
327.967
326.838
325.704
324.562
323.411
322.245
321.061
319.853
318.616
317.342
316.024
314.65
313.208
311.683
310.053
308.291
306.354
304.171
301.612
301.894
305.016
307.759
310.254
312.569
314.745
316.809
318.78
320.672
322.497
324.263
325.977
327.645
329.271
330.857
332.408
333.925
335.41
336.863
338.284
339.674
341.032
342.357
343.649
344.905
346.124
347.304
348.443
349.538
350.588
351.59
352.541
353.438
354.281
355.065
355.788
356.449
357.045
357.575
358.036
358.427
358.747
358.995
359.17
359.273
359.301
359.257
359.139
358.95
358.69
358.361
357.963
357.5
356.973
356.385
355.738
355.036
354.281
353.476
352.625
351.731
350.797
349.828
348.826
347.795
346.739
345.66
344.562
343.448
342.321
341.183
340.037
338.886
337.73
336.572
335.413
334.254
333.096
331.938
330.781
329.625
328.467
327.307
326.143
324.972
323.791
322.596
321.384
320.149
318.885
317.584
316.239
314.839
313.371
311.82
310.166
308.378
306.416
304.208
301.625
301.913
305.073
307.855
310.388
312.741
314.955
317.057
319.067
320.997
322.861
324.665
326.418
328.124
329.787
331.412
333.001
334.556
336.078
337.568
339.027
340.453
341.848
343.209
344.535
345.826
347.078
348.291
349.462
350.588
351.668
352.698
353.676
354.599
355.466
356.273
357.017
357.698
358.311
358.857
359.332
359.735
360.065
360.32
360.501
360.607
360.637
360.592
360.472
360.278
360.011
359.672
359.264
358.788
358.246
357.642
356.977
356.254
355.478
354.65
353.774
352.855
351.895
350.898
349.867
348.807
347.72
346.611
345.482
344.336
343.177
342.007
340.829
339.645
338.457
337.267
336.076
334.885
333.695
332.507
331.319
330.132
328.945
327.756
326.562
325.363
324.154
322.932
321.693
320.431
319.141
317.814
316.444
315.019
313.527
311.952
310.273
308.461
306.475
304.244
301.637
301.931
305.128
307.946
310.515
312.905
315.155
317.294
319.339
321.307
323.207
325.048
326.837
328.579
330.279
331.941
333.566
335.157
336.715
338.24
339.734
341.196
342.625
344.02
345.38
346.703
347.988
349.232
350.434
351.59
352.698
353.755
354.759
355.708
356.598
357.426
358.191
358.89
359.521
360.081
360.57
360.984
361.324
361.587
361.773
361.882
361.914
361.868
361.746
361.547
361.273
360.926
360.508
360.019
359.463
358.843
358.16
357.419
356.622
355.772
354.874
353.93
352.944
351.92
350.862
349.774
348.658
347.519
346.36
345.184
343.994
342.794
341.584
340.369
339.151
337.93
336.708
335.487
334.267
333.049
331.832
330.616
329.4
328.183
326.962
325.735
324.5
323.252
321.987
320.7
319.384
318.033
316.639
315.19
313.674
312.076
310.374
308.54
306.531
304.277
301.648
301.949
305.179
308.032
310.636
313.06
315.344
317.517
319.598
321.599
323.534
325.41
327.233
329.01
330.745
332.441
334.1
335.726
337.318
338.878
340.405
341.9
343.362
344.789
346.182
347.536
348.852
350.126
351.356
352.541
353.676
354.759
355.789
356.761
357.673
358.523
359.307
360.024
360.671
361.246
361.747
362.172
362.521
362.791
362.983
363.095
363.128
363.082
362.957
362.754
362.474
362.119
361.691
361.191
360.621
359.986
359.287
358.527
357.71
356.84
355.919
354.952
353.942
352.893
351.809
350.694
349.55
348.383
347.195
345.99
344.771
343.541
342.303
341.058
339.81
338.56
337.309
336.059
334.81
333.563
332.319
331.075
329.832
328.588
327.341
326.088
324.827
323.554
322.265
320.954
319.615
318.241
316.823
315.352
313.814
312.194
310.47
308.615
306.584
304.309
301.658
301.965
305.228
308.113
310.749
313.205
315.522
317.728
319.841
321.875
323.842
325.75
327.606
329.416
331.184
332.912
334.604
336.262
337.886
339.478
341.037
342.564
344.057
345.515
346.938
348.322
349.667
350.969
352.227
353.438
354.599
355.708
356.761
357.755
358.689
359.558
360.361
361.095
361.757
362.346
362.859
363.295
363.652
363.93
364.127
364.243
364.277
364.23
364.103
363.896
363.61
363.248
362.81
362.299
361.717
361.067
360.352
359.576
358.74
357.85
356.908
355.919
354.886
353.813
352.705
351.564
350.394
349.2
347.986
346.753
345.506
344.248
342.982
341.709
340.433
339.155
337.876
336.599
335.323
334.049
332.778
331.508
330.239
328.97
327.698
326.421
325.136
323.84
322.527
321.193
319.832
318.436
316.997
315.505
313.946
312.305
310.561
308.685
306.634
304.339
301.668
301.98
305.273
308.188
310.855
313.341
315.689
317.925
320.068
322.133
324.13
326.069
327.956
329.796
331.594
333.353
335.076
336.764
338.419
340.04
341.63
343.186
344.708
346.196
347.646
349.059
350.431
351.76
353.044
354.281
355.466
356.598
357.673
358.689
359.642
360.53
361.351
362.101
362.778
363.379
363.904
364.35
364.716
365
365.202
365.321
365.356
365.31
365.18
364.97
364.678
364.309
363.862
363.341
362.747
362.084
361.354
360.562
359.709
358.8
357.839
356.829
355.774
354.679
353.547
352.382
351.188
349.969
348.728
347.47
346.197
344.913
343.62
342.321
341.018
339.714
338.41
337.106
335.805
334.506
333.21
331.915
330.622
329.329
328.033
326.734
325.426
324.108
322.773
321.418
320.036
318.619
317.16
315.648
314.069
312.409
310.645
308.75
306.681
304.367
301.678
301.994
305.315
308.258
310.953
313.468
315.843
318.107
320.279
322.372
324.398
326.365
328.28
330.149
331.975
333.763
335.514
337.23
338.913
340.563
342.18
343.764
345.314
346.828
348.306
349.744
351.142
352.496
353.805
355.065
356.273
357.426
358.523
359.558
360.53
361.436
362.273
363.038
363.729
364.343
364.878
365.334
365.707
365.997
366.204
366.326
366.363
366.316
366.185
365.971
365.675
365.299
364.844
364.313
363.708
363.033
362.29
361.482
360.613
359.687
358.707
357.678
356.603
355.487
354.333
353.145
351.928
350.686
349.422
348.139
346.842
345.533
344.216
342.892
341.565
340.236
338.907
337.58
336.254
334.932
333.612
332.295
330.979
329.663
328.346
327.025
325.696
324.357
323.002
321.627
320.226
318.79
317.312
315.781
314.184
312.505
310.724
308.812
306.725
304.393
301.686
302.007
305.354
308.323
311.043
313.584
315.986
318.275
320.473
322.592
324.644
326.638
328.579
330.474
332.327
334.14
335.918
337.66
339.369
341.045
342.688
344.297
345.872
347.412
348.914
350.377
351.798
353.176
354.506
355.788
357.017
358.191
359.307
360.361
361.351
362.273
363.125
363.904
364.608
365.233
365.779
366.243
366.624
366.92
367.131
367.256
367.295
367.247
367.115
366.898
366.597
366.215
365.753
365.213
364.598
363.911
363.155
362.334
361.45
360.508
359.511
358.464
357.37
356.234
355.06
353.852
352.614
351.35
350.064
348.759
347.439
346.108
344.767
343.421
342.071
340.719
339.368
338.018
336.67
335.326
333.984
332.646
331.309
329.973
328.635
327.294
325.946
324.588
323.214
321.821
320.401
318.948
317.452
315.904
314.29
312.595
310.797
308.868
306.765
304.417
301.694
302.019
305.389
308.382
311.126
313.69
316.115
318.429
320.65
322.793
324.869
326.886
328.851
330.77
332.647
334.484
336.286
338.052
339.785
341.485
343.151
344.784
346.382
347.944
349.469
350.954
352.397
353.796
355.147
356.449
357.698
358.89
360.024
361.095
362.101
363.038
363.904
364.696
365.411
366.048
366.603
367.075
367.462
367.764
367.979
368.107
368.147
368.1
367.966
367.746
367.442
367.054
366.585
366.037
365.413
364.716
363.949
363.114
362.217
361.26
360.248
359.185
358.074
356.92
355.728
354.501
353.243
351.959
350.653
349.327
347.987
346.635
345.273
343.906
342.535
341.162
339.79
338.42
337.052
335.687
334.326
332.968
331.612
330.257
328.901
327.541
326.175
324.799
323.409
321.998
320.562
319.092
317.581
316.017
314.387
312.677
310.864
308.92
306.802
304.44
301.702
302.029
305.421
308.434
311.2
313.785
316.231
318.566
320.809
322.973
325.07
327.109
329.096
331.036
332.935
334.794
336.617
338.405
340.159
341.88
343.568
345.222