/*--------------------------------*- C++ -*----------------------------------*\
  =========                 |
  \\      /  F ield         | OpenFOAM: The Open Source CFD Toolbox
   \\    /   O peration     | Website:  https://openfoam.org
    \\  /    A nd           | Version:  9
     \\/     M anipulation  |
\*---------------------------------------------------------------------------*/
FoamFile
{
    format      ascii;
    class       volScalarField;
    location    "0.3";
    object      gradTz;
}
// * * * * * * * * * * * * * * * * * * * * * * * * * * * * * * * * * * * * * //

dimensions      [0 -1 0 1 0 0 0];

internalField   nonuniform List<scalar> 
200000
(
-6343.2
-6865.49
-7018.83
-7074.58
-7098.97
-7111.27
-7118.13
-7122.24
-7124.82
-7126.5
-7127.61
-7128.34
-7128.83
-7129.14
-7129.32
-7129.42
-7129.45
-7129.42
-7129.37
-7129.28
-7129.17
-7129.05
-7128.92
-7128.78
-7128.63
-7128.48
-7128.33
-7128.18
-7128.04
-7127.89
-7127.75
-7127.62
-7127.49
-7127.37
-7127.26
-7127.15
-7127.06
-7126.97
-7126.9
-7126.83
-7126.78
-7126.73
-7126.7
-7126.68
-7126.67
-7126.67
-7126.68
-7126.71
-7126.75
-7126.79
-7126.85
-7126.92
-7127
-7127.09
-7127.19
-7127.3
-7127.41
-7127.53
-7127.66
-7127.8
-7127.94
-7128.09
-7128.24
-7128.39
-7128.55
-7128.71
-7128.87
-7129.03
-7129.19
-7129.35
-7129.51
-7129.66
-7129.81
-7129.96
-7130.1
-7130.23
-7130.36
-7130.47
-7130.57
-7130.65
-7130.71
-7130.75
-7130.76
-7130.72
-7130.63
-7130.47
-7130.22
-7129.84
-7129.28
-7128.47
-7127.29
-7125.53
-7122.87
-7118.67
-7111.73
-7099.35
-7074.87
-7019.04
-6865.62
-6343.25
-6865.49
-7869.57
-8223.9
-8368.15
-8435.33
-8470.32
-8490.18
-8502.19
-8509.79
-8514.74
-8518.02
-8520.2
-8521.63
-8522.55
-8523.1
-8523.37
-8523.45
-8523.39
-8523.21
-8522.95
-8522.63
-8522.26
-8521.86
-8521.44
-8521
-8520.55
-8520.11
-8519.66
-8519.22
-8518.79
-8518.37
-8517.96
-8517.58
-8517.22
-8516.88
-8516.56
-8516.28
-8516.02
-8515.79
-8515.59
-8515.43
-8515.3
-8515.2
-8515.13
-8515.11
-8515.11
-8515.15
-8515.23
-8515.34
-8515.48
-8515.66
-8515.87
-8516.11
-8516.37
-8516.67
-8516.99
-8517.34
-8517.71
-8518.1
-8518.5
-8518.93
-8519.37
-8519.82
-8520.29
-8520.76
-8521.23
-8521.72
-8522.2
-8522.68
-8523.16
-8523.63
-8524.09
-8524.55
-8524.99
-8525.41
-8525.8
-8526.18
-8526.51
-8526.81
-8527.06
-8527.25
-8527.36
-8527.38
-8527.28
-8527.01
-8526.54
-8525.8
-8524.67
-8523.01
-8520.61
-8517.1
-8511.91
-8504.08
-8491.82
-8471.71
-8436.47
-8369.04
-8224.54
-7869.95
-6865.62
-7018.83
-8223.9
-8688.27
-8891.28
-8990.78
-9044.41
-9075.53
-9094.62
-9106.81
-9114.8
-9120.11
-9123.66
-9125.99
-9127.48
-9128.37
-9128.81
-9128.93
-9128.81
-9128.51
-9128.07
-9127.53
-9126.92
-9126.25
-9125.54
-9124.81
-9124.06
-9123.31
-9122.57
-9121.83
-9121.11
-9120.41
-9119.74
-9119.1
-9118.49
-9117.93
-9117.4
-9116.92
-9116.49
-9116.11
-9115.78
-9115.5
-9115.28
-9115.12
-9115.02
-9114.97
-9114.98
-9115.05
-9115.18
-9115.36
-9115.6
-9115.89
-9116.24
-9116.64
-9117.08
-9117.58
-9118.11
-9118.69
-9119.31
-9119.96
-9120.64
-9121.35
-9122.08
-9122.84
-9123.61
-9124.4
-9125.19
-9126
-9126.8
-9127.6
-9128.4
-9129.19
-9129.97
-9130.72
-9131.45
-9132.16
-9132.82
-9133.44
-9134.01
-9134.51
-9134.93
-9135.24
-9135.44
-9135.47
-9135.31
-9134.88
-9134.12
-9132.89
-9131.05
-9128.35
-9124.44
-9118.74
-9110.36
-9097.77
-9078.27
-9046.74
-8992.69
-8892.77
-8689.33
-8224.54
-7019.04
-7074.58
-8368.15
-8891.28
-9131
-9253.22
-9321.11
-9361.38
-9386.47
-9402.66
-9413.35
-9420.5
-9425.28
-9428.43
-9430.44
-9431.63
-9432.22
-9432.36
-9432.17
-9431.74
-9431.11
-9430.35
-9429.48
-9428.54
-9427.55
-9426.52
-9425.47
-9424.42
-9423.37
-9422.34
-9421.33
-9420.35
-9419.4
-9418.51
-9417.66
-9416.86
-9416.13
-9415.45
-9414.85
-9414.31
-9413.85
-9413.47
-9413.16
-9412.93
-9412.78
-9412.71
-9412.73
-9412.82
-9413
-9413.26
-9413.6
-9414.01
-9414.49
-9415.05
-9415.68
-9416.37
-9417.12
-9417.93
-9418.79
-9419.71
-9420.66
-9421.66
-9422.69
-9423.74
-9424.83
-9425.93
-9427.05
-9428.17
-9429.3
-9430.43
-9431.55
-9432.65
-9433.74
-9434.8
-9435.83
-9436.81
-9437.75
-9438.62
-9439.42
-9440.12
-9440.71
-9441.17
-9441.45
-9441.51
-9441.3
-9440.73
-9439.69
-9438.03
-9435.53
-9431.86
-9426.56
-9418.87
-9407.63
-9390.88
-9365.22
-9324.37
-9255.9
-9133.08
-8892.77
-8369.05
-7074.88
-7098.97
-8435.33
-8990.78
-9253.22
-9390.95
-9469.33
-9516.73
-9546.69
-9566.23
-9579.24
-9587.98
-9593.84
-9597.72
-9600.18
-9601.62
-9602.32
-9602.46
-9602.19
-9601.6
-9600.78
-9599.79
-9598.66
-9597.44
-9596.16
-9594.83
-9593.48
-9592.12
-9590.77
-9589.44
-9588.13
-9586.87
-9585.66
-9584.5
-9583.41
-9582.38
-9581.43
-9580.57
-9579.79
-9579.1
-9578.5
-9578
-9577.61
-9577.31
-9577.12
-9577.03
-9577.05
-9577.18
-9577.4
-9577.74
-9578.17
-9578.7
-9579.32
-9580.04
-9580.85
-9581.74
-9582.71
-9583.75
-9584.86
-9586.04
-9587.27
-9588.55
-9589.88
-9591.24
-9592.64
-9594.06
-9595.5
-9596.95
-9598.4
-9599.85
-9601.3
-9602.72
-9604.12
-9605.49
-9606.81
-9608.08
-9609.29
-9610.42
-9611.45
-9612.36
-9613.13
-9613.73
-9614.11
-9614.21
-9613.97
-9613.27
-9612
-9609.95
-9606.85
-9602.32
-9595.78
-9586.35
-9572.63
-9552.37
-9521.67
-9473.53
-9394.39
-9255.91
-8992.71
-8436.48
-7099.35
-7111.27
-8470.32
-9044.41
-9321.11
-9469.33
-9555.28
-9608.08
-9641.88
-9664.14
-9679.07
-9689.15
-9695.93
-9700.41
-9703.25
-9704.89
-9705.66
-9705.77
-9705.39
-9704.65
-9703.62
-9702.39
-9701
-9699.49
-9697.91
-9696.28
-9694.62
-9692.95
-9691.29
-9689.66
-9688.06
-9686.51
-9685.02
-9683.61
-9682.26
-9681.01
-9679.85
-9678.78
-9677.83
-9676.98
-9676.25
-9675.64
-9675.15
-9674.79
-9674.56
-9674.45
-9674.47
-9674.63
-9674.91
-9675.31
-9675.84
-9676.49
-9677.26
-9678.14
-9679.12
-9680.21
-9681.4
-9682.68
-9684.04
-9685.48
-9686.99
-9688.56
-9690.18
-9691.85
-9693.56
-9695.3
-9697.07
-9698.84
-9700.63
-9702.41
-9704.17
-9705.92
-9707.64
-9709.32
-9710.94
-9712.5
-9713.98
-9715.37
-9716.64
-9717.77
-9718.73
-9719.47
-9719.96
-9720.12
-9719.86
-9719.08
-9717.6
-9715.21
-9711.6
-9706.31
-9698.7
-9687.77
-9671.98
-9648.83
-9614.13
-9560.42
-9473.55
-9324.4
-9046.76
-8471.73
-7111.74
-7118.13
-8490.18
-9075.53
-9361.38
-9516.73
-9608.08
-9664.9
-9701.66
-9726.07
-9742.54
-9753.72
-9761.25
-9766.22
-9769.35
-9771.14
-9771.93
-9771.99
-9771.48
-9770.56
-9769.31
-9767.82
-9766.16
-9764.36
-9762.48
-9760.54
-9758.56
-9756.58
-9754.61
-9752.68
-9750.78
-9748.95
-9747.18
-9745.5
-9743.91
-9742.42
-9741.04
-9739.78
-9738.65
-9737.64
-9736.78
-9736.05
-9735.48
-9735.05
-9734.77
-9734.64
-9734.67
-9734.85
-9735.18
-9735.66
-9736.28
-9737.05
-9737.96
-9739
-9740.17
-9741.47
-9742.87
-9744.39
-9746
-9747.7
-9749.49
-9751.35
-9753.28
-9755.26
-9757.28
-9759.35
-9761.44
-9763.54
-9765.65
-9767.77
-9769.86
-9771.93
-9773.97
-9775.96
-9777.89
-9779.74
-9781.5
-9783.15
-9784.67
-9786.02
-9787.17
-9788.08
-9788.69
-9788.92
-9788.68
-9787.82
-9786.19
-9783.52
-9779.47
-9773.54
-9765.03
-9752.85
-9735.35
-9709.89
-9672.06
-9614.16
-9521.72
-9365.28
-9078.32
-8491.85
-7118.69
-7122.24
-8502.19
-9094.62
-9386.47
-9546.69
-9641.88
-9701.66
-9740.65
-9766.73
-9784.42
-9796.45
-9804.57
-9809.92
-9813.26
-9815.13
-9815.91
-9815.88
-9815.22
-9814.09
-9812.61
-9810.86
-9808.91
-9806.82
-9804.62
-9802.37
-9800.08
-9797.78
-9795.5
-9793.25
-9791.05
-9788.93
-9786.88
-9784.93
-9783.09
-9781.37
-9779.77
-9778.31
-9777
-9775.84
-9774.83
-9773.99
-9773.32
-9772.83
-9772.5
-9772.36
-9772.39
-9772.59
-9772.97
-9773.53
-9774.25
-9775.14
-9776.19
-9777.4
-9778.75
-9780.25
-9781.87
-9783.63
-9785.49
-9787.47
-9789.53
-9791.69
-9793.92
-9796.21
-9798.55
-9800.94
-9803.36
-9805.8
-9808.25
-9810.69
-9813.12
-9815.52
-9817.88
-9820.18
-9822.42
-9824.57
-9826.62
-9828.54
-9830.3
-9831.88
-9833.24
-9834.32
-9835.06
-9835.38
-9835.18
-9834.29
-9832.54
-9829.64
-9825.24
-9818.79
-9809.54
-9796.34
-9777.46
-9750.17
-9709.94
-9648.92
-9552.47
-9390.98
-9097.85
-8504.13
-7122.88
-7124.82
-8509.79
-9106.81
-9402.66
-9566.23
-9664.14
-9726.07
-9766.73
-9794.07
-9812.67
-9825.36
-9833.92
-9839.53
-9843.01
-9844.91
-9845.64
-9845.47
-9844.64
-9843.29
-9841.56
-9839.53
-9837.29
-9834.89
-9832.38
-9829.8
-9827.19
-9824.57
-9821.97
-9819.41
-9816.91
-9814.49
-9812.16
-9809.94
-9807.85
-9805.88
-9804.07
-9802.41
-9800.91
-9799.59
-9798.45
-9797.49
-9796.73
-9796.16
-9795.79
-9795.62
-9795.66
-9795.89
-9796.32
-9796.95
-9797.78
-9798.79
-9799.98
-9801.35
-9802.89
-9804.59
-9806.44
-9808.43
-9810.55
-9812.8
-9815.15
-9817.6
-9820.13
-9822.74
-9825.41
-9828.12
-9830.88
-9833.65
-9836.43
-9839.21
-9841.98
-9844.71
-9847.39
-9850.02
-9852.57
-9855.02
-9857.36
-9859.55
-9861.58
-9863.39
-9864.96
-9866.23
-9867.12
-9867.55
-9867.4
-9866.52
-9864.69
-9861.63
-9856.94
-9850.07
-9840.23
-9826.22
-9806.26
-9777.55
-9735.49
-9672.14
-9572.79
-9407.78
-9110.47
-8511.99
-7125.56
-7126.5
-8514.74
-9114.8
-9413.35
-9579.24
-9679.07
-9742.54
-9784.42
-9812.67
-9831.95
-9845.11
-9853.98
-9859.77
-9863.31
-9865.18
-9865.8
-9865.48
-9864.45
-9862.86
-9860.86
-9858.55
-9856
-9853.29
-9850.45
-9847.55
-9844.61
-9841.66
-9838.73
-9835.86
-9833.05
-9830.33
-9827.72
-9825.23
-9822.87
-9820.67
-9818.63
-9816.77
-9815.09
-9813.6
-9812.32
-9811.25
-9810.39
-9809.75
-9809.34
-9809.15
-9809.18
-9809.44
-9809.93
-9810.63
-9811.56
-9812.69
-9814.03
-9815.56
-9817.29
-9819.19
-9821.27
-9823.5
-9825.88
-9828.4
-9831.04
-9833.78
-9836.63
-9839.55
-9842.55
-9845.59
-9848.68
-9851.79
-9854.92
-9858.04
-9861.14
-9864.21
-9867.22
-9870.17
-9873.04
-9875.8
-9878.43
-9880.91
-9883.19
-9885.26
-9887.05
-9888.51
-9889.57
-9890.13
-9890.06
-9889.2
-9887.34
-9884.17
-9879.27
-9872.09
-9861.78
-9847.13
-9826.34
-9796.54
-9753.1
-9688.03
-9586.59
-9419.08
-9118.9
-8517.2
-7127.32
-7127.61
-8518.02
-9120.11
-9420.5
-9587.98
-9689.15
-9753.72
-9796.45
-9825.36
-9845.11
-9858.59
-9867.65
-9873.52
-9877.05
-9878.85
-9879.33
-9878.83
-9877.56
-9875.72
-9873.44
-9870.83
-9867.96
-9864.92
-9861.76
-9858.52
-9855.24
-9851.96
-9848.71
-9845.51
-9842.39
-9839.37
-9836.47
-9833.7
-9831.09
-9828.64
-9826.38
-9824.31
-9822.44
-9820.79
-9819.37
-9818.18
-9817.22
-9816.51
-9816.05
-9815.84
-9815.88
-9816.16
-9816.7
-9817.48
-9818.5
-9819.76
-9821.24
-9822.95
-9824.86
-9826.98
-9829.28
-9831.75
-9834.4
-9837.19
-9840.11
-9843.16
-9846.32
-9849.56
-9852.88
-9856.27
-9859.69
-9863.15
-9866.61
-9870.08
-9873.52
-9876.93
-9880.28
-9883.56
-9886.75
-9889.82
-9892.75
-9895.51
-9898.07
-9900.39
-9902.42
-9904.08
-9905.32
-9906.03
-9906.07
-9905.27
-9903.41
-9900.18
-9895.14
-9887.72
-9877.06
-9861.94
-9840.5
-9809.88
-9765.41
-9699.08
-9596.13
-9426.85
-9124.66
-8520.75
-7128.52
-7128.34
-8520.2
-9123.66
-9425.28
-9593.84
-9695.93
-9761.25
-9804.57
-9833.92
-9853.98
-9867.65
-9876.8
-9882.67
-9886.14
-9887.81
-9888.12
-9887.39
-9885.88
-9883.77
-9881.19
-9878.26
-9875.07
-9871.7
-9868.2
-9864.62
-9861
-9857.38
-9853.8
-9850.28
-9846.84
-9843.51
-9840.32
-9837.27
-9834.39
-9831.7
-9829.21
-9826.93
-9824.87
-9823.06
-9821.49
-9820.18
-9819.13
-9818.34
-9817.83
-9817.6
-9817.64
-9817.95
-9818.54
-9819.4
-9820.52
-9821.9
-9823.53
-9825.41
-9827.51
-9829.83
-9832.36
-9835.09
-9837.99
-9841.06
-9844.28
-9847.63
-9851.1
-9854.67
-9858.32
-9862.04
-9865.81
-9869.61
-9873.42
-9877.24
-9881.03
-9884.78
-9888.47
-9892.08
-9895.59
-9898.98
-9902.22
-9905.28
-9908.12
-9910.69
-9912.96
-9914.85
-9916.28
-9917.15
-9917.32
-9916.61
-9914.79
-9911.54
-9906.42
-9898.84
-9887.94
-9872.46
-9850.56
-9819.33
-9774.1
-9706.84
-9602.8
-9432.26
-9128.65
-8523.2
-7129.35
-7128.83
-8521.63
-9125.99
-9428.43
-9597.72
-9700.41
-9766.22
-9809.92
-9839.53
-9859.77
-9873.52
-9882.67
-9888.49
-9891.83
-9893.33
-9893.44
-9892.47
-9890.69
-9888.28
-9885.39
-9882.14
-9878.62
-9874.9
-9871.05
-9867.12
-9863.16
-9859.2
-9855.28
-9851.43
-9847.67
-9844.04
-9840.54
-9837.22
-9834.07
-9831.13
-9828.4
-9825.91
-9823.67
-9821.69
-9819.97
-9818.54
-9817.39
-9816.53
-9815.97
-9815.71
-9815.75
-9816.09
-9816.73
-9817.67
-9818.89
-9820.4
-9822.18
-9824.22
-9826.51
-9829.05
-9831.81
-9834.78
-9837.95
-9841.3
-9844.81
-9848.47
-9852.26
-9856.15
-9860.14
-9864.2
-9868.32
-9872.47
-9876.63
-9880.79
-9884.93
-9889.03
-9893.07
-9897.02
-9900.86
-9904.57
-9908.12
-9911.48
-9914.6
-9917.45
-9919.97
-9922.09
-9923.73
-9924.77
-9925.09
-9924.5
-9922.75
-9919.52
-9914.38
-9906.71
-9895.64
-9879.92
-9857.67
-9826
-9780.22
-9712.31
-9607.48
-9436.04
-9131.44
-8524.91
-7129.92
-7129.14
-8522.55
-9127.48
-9430.44
-9600.18
-9703.25
-9769.35
-9813.26
-9843.01
-9863.31
-9877.05
-9886.14
-9891.83
-9895.02
-9896.31
-9896.17
-9894.94
-9892.87
-9890.15
-9886.94
-9883.35
-9879.49
-9875.42
-9871.22
-9866.94
-9862.63
-9858.32
-9854.06
-9849.87
-9845.79
-9841.84
-9838.05
-9834.43
-9831.02
-9827.82
-9824.87
-9822.16
-9819.73
-9817.57
-9815.71
-9814.15
-9812.9
-9811.97
-9811.36
-9811.07
-9811.12
-9811.49
-9812.18
-9813.19
-9814.51
-9816.14
-9818.07
-9820.28
-9822.77
-9825.52
-9828.51
-9831.74
-9835.17
-9838.8
-9842.61
-9846.58
-9850.69
-9854.91
-9859.24
-9863.64
-9868.11
-9872.61
-9877.13
-9881.65
-9886.14
-9890.59
-9894.98
-9899.27
-9903.45
-9907.48
-9911.35
-9915.01
-9918.43
-9921.55
-9924.33
-9926.69
-9928.55
-9929.79
-9930.28
-9929.82
-9928.17
-9925.01
-9919.88
-9912.17
-9901.01
-9885.13
-9862.66
-9830.68
-9784.52
-9716.13
-9610.75
-9438.69
-9133.38
-8526.09
-7130.32
-7129.32
-8523.1
-9128.37
-9431.63
-9601.62
-9704.89
-9771.14
-9815.13
-9844.91
-9865.18
-9878.85
-9887.81
-9893.33
-9896.31
-9897.37
-9896.97
-9895.45
-9893.07
-9890.03
-9886.48
-9882.55
-9878.33
-9873.91
-9869.35
-9864.71
-9860.04
-9855.38
-9850.77
-9846.24
-9841.83
-9837.57
-9833.47
-9829.57
-9825.88
-9822.43
-9819.24
-9816.32
-9813.69
-9811.36
-9809.35
-9807.66
-9806.31
-9805.31
-9804.65
-9804.34
-9804.38
-9804.77
-9805.52
-9806.61
-9808.03
-9809.79
-9811.87
-9814.25
-9816.93
-9819.89
-9823.12
-9826.6
-9830.3
-9834.22
-9838.33
-9842.61
-9847.04
-9851.59
-9856.26
-9861.01
-9865.83
-9870.69
-9875.57
-9880.44
-9885.29
-9890.1
-9894.83
-9899.47
-9903.99
-9908.36
-9912.54
-9916.51
-9920.23
-9923.64
-9926.69
-9929.3
-9931.39
-9932.84
-9933.51
-9933.21
-9931.69
-9928.62
-9923.54
-9915.85
-9904.65
-9888.69
-9866.07
-9833.9
-9787.48
-9718.77
-9613.01
-9440.51
-9134.72
-8526.91
-7130.6
-7129.42
-8523.37
-9128.81
-9432.22
-9602.32
-9705.66
-9771.93
-9815.91
-9845.64
-9865.8
-9879.33
-9888.12
-9893.44
-9896.17
-9896.97
-9896.28
-9894.46
-9891.75
-9888.38
-9884.48
-9880.19
-9875.61
-9870.83
-9865.9
-9860.9
-9855.87
-9850.85
-9845.89
-9841.03
-9836.29
-9831.7
-9827.3
-9823.1
-9819.14
-9815.44
-9812
-9808.87
-9806.04
-9803.53
-9801.37
-9799.56
-9798.11
-9797.02
-9796.31
-9795.97
-9796.02
-9796.44
-9797.23
-9798.4
-9799.93
-9801.81
-9804.04
-9806.59
-9809.47
-9812.65
-9816.11
-9819.84
-9823.82
-9828.02
-9832.43
-9837.02
-9841.78
-9846.67
-9851.68
-9856.78
-9861.95
-9867.17
-9872.41
-9877.65
-9882.86
-9888.02
-9893.11
-9898.1
-9902.96
-9907.66
-9912.18
-9916.46
-9920.48
-9924.18
-9927.51
-9930.38
-9932.71
-9934.38
-9935.25
-9935.13
-9933.75
-9930.8
-9925.82
-9918.17
-9906.99
-9891
-9868.32
-9836.03
-9789.45
-9720.53
-9614.52
-9441.73
-9135.62
-8527.47
-7130.78
-7129.45
-8523.45
-9128.93
-9432.36
-9602.46
-9705.77
-9771.99
-9815.88
-9845.47
-9865.48
-9878.83
-9887.39
-9892.47
-9894.94
-9895.45
-9894.46
-9892.31
-9889.27
-9885.54
-9881.29
-9876.64
-9871.7
-9866.54
-9861.24
-9855.87
-9850.47
-9845.1
-9839.79
-9834.58
-9829.5
-9824.59
-9819.88
-9815.39
-9811.16
-9807.19
-9803.52
-9800.16
-9797.13
-9794.45
-9792.14
-9790.19
-9788.64
-9787.47
-9786.71
-9786.35
-9786.39
-9786.84
-9787.68
-9788.93
-9790.56
-9792.57
-9794.94
-9797.68
-9800.75
-9804.14
-9807.84
-9811.83
-9816.08
-9820.57
-9825.28
-9830.19
-9835.27
-9840.5
-9845.86
-9851.31
-9856.84
-9862.42
-9868.02
-9873.62
-9879.2
-9884.72
-9890.16
-9895.51
-9900.71
-9905.75
-9910.6
-9915.21
-9919.53
-9923.53
-9927.14
-9930.28
-9932.86
-9934.76
-9935.85
-9935.91
-9934.71
-9931.9
-9927.03
-9919.47
-9908.34
-9892.37
-9869.68
-9837.35
-9790.68
-9721.65
-9615.49
-9442.52
-9136.2
-8527.82
-7130.9
-7129.42
-8523.39
-9128.81
-9432.17
-9602.19
-9705.39
-9771.48
-9815.22
-9844.64
-9864.45
-9877.56
-9885.88
-9890.69
-9892.87
-9893.07
-9891.75
-9889.27
-9885.88
-9881.8
-9877.19
-9872.17
-9866.85
-9861.32
-9855.65
-9849.9
-9844.13
-9838.4
-9832.73
-9827.17
-9821.76
-9816.53
-9811.5
-9806.72
-9802.2
-9797.97
-9794.06
-9790.48
-9787.25
-9784.39
-9781.92
-9779.85
-9778.19
-9776.95
-9776.13
-9775.74
-9775.78
-9776.25
-9777.15
-9778.47
-9780.2
-9782.34
-9784.87
-9787.78
-9791.04
-9794.66
-9798.59
-9802.83
-9807.36
-9812.14
-9817.15
-9822.38
-9827.79
-9833.36
-9839.06
-9844.87
-9850.76
-9856.7
-9862.66
-9868.63
-9874.57
-9880.46
-9886.26
-9891.96
-9897.52
-9902.9
-9908.08
-9913.01
-9917.65
-9921.95
-9925.84
-9929.26
-9932.1
-9934.24
-9935.55
-9935.82
-9934.8
-9932.15
-9927.42
-9919.98
-9908.94
-9893.03
-9870.37
-9838.04
-9791.35
-9722.27
-9616.03
-9442.97
-9136.54
-8528.03
-7130.97
-7129.37
-8523.21
-9128.51
-9431.74
-9601.6
-9704.65
-9770.56
-9814.09
-9843.29
-9862.86
-9875.72
-9883.77
-9888.28
-9890.15
-9890.03
-9888.38
-9885.54
-9881.8
-9877.36
-9872.37
-9866.97
-9861.28
-9855.37
-9849.32
-9843.2
-9837.06
-9830.96
-9824.93
-9819.02
-9813.27
-9807.71
-9802.38
-9797.3
-9792.5
-9788.01
-9783.85
-9780.04
-9776.62
-9773.58
-9770.96
-9768.75
-9766.99
-9765.66
-9764.79
-9764.37
-9764.41
-9764.91
-9765.86
-9767.25
-9769.09
-9771.35
-9774.03
-9777.11
-9780.58
-9784.41
-9788.58
-9793.08
-9797.87
-9802.95
-9808.27
-9813.81
-9819.55
-9825.46
-9831.51
-9837.67
-9843.92
-9850.23
-9856.56
-9862.89
-9869.2
-9875.45
-9881.62
-9887.67
-9893.58
-9899.31
-9904.82
-9910.08
-9915.04
-9919.64
-9923.83
-9927.52
-9930.63
-9933.03
-9934.57
-9935.05
-9934.23
-9931.76
-9927.19
-9919.88
-9908.95
-9893.14
-9870.55
-9838.26
-9791.6
-9722.52
-9616.27
-9443.17
-9136.69
-8528.13
-7131.01
-7129.28
-8522.95
-9128.07
-9431.11
-9600.78
-9703.62
-9769.31
-9812.61
-9841.56
-9860.86
-9873.44
-9881.19
-9885.39
-9886.94
-9886.48
-9884.48
-9881.29
-9877.19
-9872.37
-9867.01
-9861.23
-9855.15
-9848.86
-9842.43
-9835.93
-9829.42
-9822.95
-9816.57
-9810.31
-9804.22
-9798.33
-9792.68
-9787.3
-9782.22
-9777.47
-9773.07
-9769.04
-9765.41
-9762.19
-9759.41
-9757.08
-9755.2
-9753.8
-9752.87
-9752.43
-9752.46
-9752.98
-9753.98
-9755.45
-9757.39
-9759.78
-9762.61
-9765.87
-9769.53
-9773.57
-9777.99
-9782.74
-9787.81
-9793.17
-9798.8
-9804.66
-9810.73
-9816.98
-9823.38
-9829.9
-9836.5
-9843.17
-9849.88
-9856.58
-9863.25
-9869.87
-9876.4
-9882.81
-9889.07
-9895.15
-9901
-9906.59
-9911.86
-9916.78
-9921.26
-9925.24
-9928.61
-9931.27
-9933.05
-9933.76
-9933.14
-9930.87
-9926.47
-9919.31
-9908.52
-9892.82
-9870.33
-9838.13
-9791.52
-9722.49
-9616.27
-9443.18
-9136.71
-8528.14
-7131.01
-7129.17
-8522.63
-9127.53
-9430.35
-9599.79
-9702.39
-9767.82
-9810.86
-9839.53
-9858.55
-9870.83
-9878.26
-9882.14
-9883.35
-9882.55
-9880.19
-9876.64
-9872.17
-9866.97
-9861.23
-9855.07
-9848.61
-9841.94
-9835.13
-9828.25
-9821.37
-9814.53
-9807.78
-9801.17
-9794.74
-9788.53
-9782.56
-9776.89
-9771.52
-9766.5
-9761.86
-9757.6
-9753.77
-9750.38
-9747.44
-9744.97
-9742.99
-9741.51
-9740.52
-9740.05
-9740.08
-9740.63
-9741.67
-9743.22
-9745.26
-9747.77
-9750.75
-9754.18
-9758.04
-9762.3
-9766.95
-9771.96
-9777.31
-9782.96
-9788.89
-9795.07
-9801.47
-9808.06
-9814.8
-9821.68
-9828.65
-9835.68
-9842.75
-9849.82
-9856.86
-9863.85
-9870.74
-9877.51
-9884.12
-9890.54
-9896.73
-9902.65
-9908.25
-9913.47
-9918.26
-9922.52
-9926.17
-9929.09
-9931.11
-9932.06
-9931.66
-9929.58
-9925.37
-9918.39
-9907.75
-9892.19
-9869.81
-9837.72
-9791.2
-9722.24
-9616.09
-9443.05
-9136.62
-8528.09
-7131
-7129.05
-8522.26
-9126.92
-9429.48
-9598.66
-9701
-9766.16
-9808.91
-9837.29
-9856
-9867.96
-9875.07
-9878.62
-9879.49
-9878.33
-9875.61
-9871.7
-9866.85
-9861.28
-9855.15
-9848.61
-9841.77
-9834.71
-9827.52
-9820.26
-9813
-9805.79
-9798.69
-9791.73
-9784.96
-9778.42
-9772.14
-9766.16
-9760.52
-9755.24
-9750.34
-9745.87
-9741.83
-9738.26
-9735.16
-9732.56
-9730.48
-9728.91
-9727.87
-9727.36
-9727.39
-9727.96
-9729.06
-9730.68
-9732.82
-9735.46
-9738.59
-9742.19
-9746.24
-9750.72
-9755.6
-9760.87
-9766.48
-9772.42
-9778.66
-9785.15
-9791.88
-9798.81
-9805.9
-9813.13
-9820.46
-9827.86
-9835.29
-9842.73
-9850.14
-9857.49
-9864.74
-9871.87
-9878.84
-9885.6
-9892.13
-9898.38
-9904.3
-9909.84
-9914.92
-9919.48
-9923.4
-9926.58
-9928.86
-9930.04
-9929.87
-9928.01
-9923.99
-9917.18
-9906.71
-9891.3
-9869.07
-9837.1
-9790.69
-9721.83
-9615.77
-9442.82
-9136.46
-8527.99
-7130.96
-7128.92
-8521.86
-9126.25
-9428.54
-9597.44
-9699.49
-9764.36
-9806.82
-9834.89
-9853.29
-9864.92
-9871.7
-9874.9
-9875.42
-9873.91
-9870.83
-9866.54
-9861.32
-9855.37
-9848.86
-9841.94
-9834.71
-9827.27
-9819.69
-9812.06
-9804.43
-9796.85
-9789.39
-9782.08
-9774.97
-9768.11
-9761.52
-9755.24
-9749.32
-9743.77
-9738.64
-9733.94
-9729.7
-9725.94
-9722.69
-9719.96
-9717.77
-9716.12
-9715.02
-9714.49
-9714.51
-9715.1
-9716.24
-9717.94
-9720.18
-9722.94
-9726.22
-9729.99
-9734.23
-9738.93
-9744.04
-9749.56
-9755.45
-9761.68
-9768.21
-9775.02
-9782.08
-9789.34
-9796.78
-9804.36
-9812.04
-9819.8
-9827.6
-9835.4
-9843.18
-9850.89
-9858.51
-9865.99
-9873.31
-9880.42
-9887.29
-9893.87
-9900.11
-9905.96
-9911.34
-9916.19
-9920.39
-9923.84
-9926.37
-9927.8
-9927.85
-9926.2
-9922.38
-9915.77
-9905.48
-9890.23
-9868.15
-9836.32
-9790.04
-9721.3
-9615.34
-9442.5
-9136.23
-8527.86
-7130.92
-7128.78
-8521.44
-9125.54
-9427.55
-9596.16
-9697.91
-9762.48
-9804.62
-9832.38
-9850.45
-9861.76
-9868.2
-9871.05
-9871.22
-9869.35
-9865.9
-9861.24
-9855.65
-9849.32
-9842.43
-9835.13
-9827.52
-9819.69
-9811.74
-9803.73
-9795.73
-9787.79
-9779.97
-9772.32
-9764.88
-9757.68
-9750.78
-9744.22
-9738.01
-9732.2
-9726.83
-9721.9
-9717.46
-9713.53
-9710.12
-9707.26
-9704.96
-9703.23
-9702.07
-9701.51
-9701.53
-9702.14
-9703.33
-9705.1
-9707.43
-9710.32
-9713.74
-9717.68
-9722.11
-9727.02
-9732.37
-9738.14
-9744.29
-9750.8
-9757.64
-9764.76
-9772.14
-9779.73
-9787.51
-9795.44
-9803.48
-9811.6
-9819.76
-9827.93
-9836.06
-9844.14
-9852.11
-9859.95
-9867.61
-9875.07
-9882.27
-9889.18
-9895.74
-9901.9
-9907.58
-9912.72
-9917.2
-9920.92
-9923.71
-9925.37
-9925.66
-9924.23
-9920.62
-9914.2
-9904.1
-9889.02
-9867.1
-9835.42
-9789.28
-9720.68
-9614.84
-9442.11
-9135.96
-8527.7
-7130.87
-7128.63
-8521
-9124.81
-9426.52
-9594.83
-9696.28
-9760.54
-9802.37
-9829.8
-9847.55
-9858.52
-9864.62
-9867.12
-9866.94
-9864.71
-9860.9
-9855.87
-9849.9
-9843.2
-9835.93
-9828.25
-9820.26
-9812.06
-9803.73
-9795.35
-9786.99
-9778.69
-9770.52
-9762.52
-9754.74
-9747.23
-9740.02
-9733.16
-9726.68
-9720.62
-9715
-9709.86
-9705.22
-9701.11
-9697.54
-9694.55
-9692.14
-9690.33
-9689.12
-9688.52
-9688.54
-9689.16
-9690.4
-9692.24
-9694.67
-9697.68
-9701.24
-9705.35
-9709.97
-9715.08
-9720.66
-9726.68
-9733.1
-9739.89
-9747.02
-9754.45
-9762.14
-9770.07
-9778.19
-9786.46
-9794.85
-9803.32
-9811.84
-9820.36
-9828.86
-9837.29
-9845.62
-9853.8
-9861.82
-9869.61
-9877.15
-9884.38
-9891.26
-9897.72
-9903.71
-9909.13
-9913.89
-9917.87
-9920.92
-9922.83
-9923.35
-9922.14
-9918.75
-9912.53
-9902.61
-9887.71
-9865.96
-9834.43
-9788.45
-9719.99
-9614.29
-9441.69
-9135.66
-8527.52
-7130.81
-7128.48
-8520.55
-9124.06
-9425.47
-9593.48
-9694.62
-9758.56
-9800.08
-9827.19
-9844.61
-9855.24
-9861
-9863.16
-9862.63
-9860.04
-9855.87
-9850.47
-9844.13
-9837.06
-9829.42
-9821.37
-9813
-9804.43
-9795.73
-9786.99
-9778.26
-9769.6
-9761.08
-9752.75
-9744.64
-9736.82
-9729.31
-9722.16
-9715.4
-9709.08
-9703.23
-9697.87
-9693.03
-9688.75
-9685.03
-9681.91
-9679.39
-9677.5
-9676.23
-9675.6
-9675.61
-9676.26
-9677.54
-9679.45
-9681.97
-9685.09
-9688.8
-9693.07
-9697.88
-9703.2
-9709
-9715.26
-9721.94
-9729
-9736.42
-9744.16
-9752.17
-9760.42
-9768.87
-9777.48
-9786.21
-9795.04
-9803.9
-9812.78
-9821.63
-9830.41
-9839.08
-9847.62
-9855.97
-9864.1
-9871.97
-9879.52
-9886.71
-9893.48
-9899.76
-9905.47
-9910.51
-9914.75
-9918.05
-9920.21
-9920.96
-9919.98
-9916.79
-9910.77
-9901.04
-9886.33
-9864.75
-9833.39
-9787.56
-9719.25
-9613.69
-9441.23
-9135.34
-8527.33
-7130.74
-7128.33
-8520.11
-9123.31
-9424.42
-9592.12
-9692.95
-9756.58
-9797.78
-9824.57
-9841.66
-9851.96
-9857.38
-9859.2
-9858.32
-9855.38
-9850.85
-9845.1
-9838.4
-9830.96
-9822.95
-9814.53
-9805.79
-9796.85
-9787.79
-9778.69
-9769.6
-9760.6
-9751.74
-9743.07
-9734.65
-9726.51
-9718.7
-9711.27
-9704.25
-9697.67
-9691.59
-9686.01
-9680.98
-9676.52
-9672.66
-9669.41
-9666.79
-9664.81
-9663.49
-9662.83
-9662.83
-9663.5
-9664.82
-9666.79
-9669.41
-9672.65
-9676.49
-9680.92
-9685.91
-9691.43
-9697.45
-9703.95
-9710.88
-9718.22
-9725.92
-9733.95
-9742.27
-9750.84
-9759.61
-9768.56
-9777.63
-9786.8
-9796.01
-9805.23
-9814.43
-9823.55
-9832.57
-9841.44
-9850.13
-9858.59
-9866.78
-9874.65
-9882.15
-9889.22
-9895.79
-9901.78
-9907.09
-9911.59
-9915.15
-9917.54
-9918.53
-9917.77
-9914.79
-9908.97
-9899.44
-9884.91
-9863.5
-9832.31
-9786.64
-9718.48
-9613.07
-9440.75
-9135
-8527.13
-7130.68
-7128.18
-8519.66
-9122.57
-9423.37
-9590.77
-9691.29
-9754.61
-9795.5
-9821.97
-9838.73
-9848.71
-9853.8
-9855.28
-9854.06
-9850.77
-9845.89
-9839.79
-9832.73
-9824.93
-9816.57
-9807.78
-9798.69
-9789.39
-9779.97
-9770.52
-9761.08
-9751.74
-9742.55
-9733.55
-9724.81
-9716.37
-9708.27
-9700.56
-9693.27
-9686.46
-9680.14
-9674.36
-9669.14
-9664.51
-9660.49
-9657.12
-9654.39
-9652.34
-9650.96
-9650.27
-9650.26
-9650.94
-9652.31
-9654.35
-9657.05
-9660.4
-9664.38
-9668.96
-9674.12
-9679.84
-9686.08
-9692.81
-9699.99
-9707.59
-9715.57
-9723.89
-9732.51
-9741.39
-9750.48
-9759.75
-9769.16
-9778.66
-9788.21
-9797.77
-9807.3
-9816.77
-9826.12
-9835.32
-9844.34
-9853.12
-9861.63
-9869.81
-9877.61
-9884.97
-9891.82
-9898.09
-9903.67
-9908.43
-9912.23
-9914.87
-9916.08
-9915.54
-9912.77
-9907.16
-9897.81
-9883.46
-9862.23
-9831.21
-9785.7
-9717.69
-9612.44
-9440.26
-9134.65
-8526.92
-7130.61
-7128.04
-8519.22
-9121.83
-9422.34
-9589.44
-9689.66
-9752.68
-9793.25
-9819.41
-9835.86
-9845.51
-9850.28
-9851.43
-9849.87
-9846.24
-9841.03
-9834.58
-9827.17
-9819.02
-9810.31
-9801.17
-9791.73
-9782.08
-9772.32
-9762.52
-9752.75
-9743.07
-9733.55
-9724.24
-9715.19
-9706.45
-9698.07
-9690.09
-9682.55
-9675.49
-9668.95
-9662.96
-9657.56
-9652.76
-9648.6
-9645.1
-9642.28
-9640.14
-9638.71
-9637.99
-9637.97
-9638.67
-9640.08
-9642.18
-9644.97
-9648.42
-9652.53
-9657.26
-9662.6
-9668.5
-9674.95
-9681.9
-9689.33
-9697.18
-9705.43
-9714.04
-9722.95
-9732.13
-9741.53
-9751.12
-9760.85
-9770.67
-9780.55
-9790.44
-9800.3
-9810.09
-9819.78
-9829.3
-9838.64
-9847.73
-9856.55
-9865.03
-9873.12
-9880.77
-9887.91
-9894.44
-9900.28
-9905.3
-9909.34
-9912.21
-9913.65
-9913.32
-9910.76
-9905.34
-9896.18
-9882.02
-9860.96
-9830.1
-9784.75
-9716.9
-9611.8
-9439.77
-9134.3
-8526.71
-7130.54
-7127.89
-8518.79
-9121.11
-9421.33
-9588.13
-9688.06
-9750.78
-9791.05
-9816.91
-9833.05
-9842.39
-9846.84
-9847.67
-9845.79
-9841.83
-9836.29
-9829.5
-9821.76
-9813.27
-9804.22
-9794.74
-9784.96
-9774.97
-9764.88
-9754.74
-9744.64
-9734.65
-9724.81
-9715.19
-9705.84
-9696.82
-9688.16
-9679.92
-9672.13
-9664.84
-9658.08
-9651.89
-9646.31
-9641.35
-9637.05
-9633.43
-9630.51
-9628.3
-9626.81
-9626.05
-9626.03
-9626.74
-9628.18
-9630.35
-9633.21
-9636.77
-9641.01
-9645.88
-9651.38
-9657.47
-9664.12
-9671.29
-9678.95
-9687.05
-9695.56
-9704.44
-9713.63
-9723.1
-9732.81
-9742.7
-9752.74
-9762.88
-9773.08
-9783.29
-9793.47
-9803.58
-9813.58
-9823.42
-9833.06
-9842.46
-9851.58
-9860.35
-9868.73
-9876.66
-9884.06
-9890.86
-9896.95
-9902.21
-9906.49
-9909.59
-9911.25
-9911.12
-9908.77
-9903.54
-9894.57
-9880.58
-9859.69
-9829
-9783.81
-9716.12
-9611.16
-9439.28
-9133.95
-8526.5
-7130.47
-7127.75
-8518.37
-9120.41
-9420.35
-9586.87
-9686.51
-9748.95
-9788.93
-9814.49
-9830.33
-9839.37
-9843.51
-9844.04
-9841.84
-9837.57
-9831.7
-9824.59
-9816.53
-9807.71
-9798.33
-9788.53
-9778.42
-9768.11
-9757.68
-9747.23
-9736.82
-9726.51
-9716.37
-9706.45
-9696.82
-9687.51
-9678.59
-9670.09
-9662.06
-9654.55
-9647.58
-9641.2
-9635.44
-9630.33
-9625.89
-9622.16
-9619.14
-9616.85
-9615.31
-9614.52
-9614.49
-9615.22
-9616.69
-9618.91
-9621.86
-9625.52
-9629.87
-9634.88
-9640.54
-9646.81
-9653.65
-9661.03
-9668.91
-9677.25
-9686.01
-9695.15
-9704.62
-9714.37
-9724.36
-9734.55
-9744.89
-9755.33
-9765.84
-9776.35
-9786.84
-9797.26
-9807.56
-9817.71
-9827.65
-9837.34
-9846.74
-9855.8
-9864.46
-9872.65
-9880.32
-9887.37
-9893.71
-9899.2
-9903.71
-9907.03
-9908.9
-9908.98
-9906.82
-9901.78
-9892.99
-9879.17
-9858.45
-9827.92
-9782.89
-9715.34
-9610.53
-9438.79
-9133.61
-8526.3
-7130.4
-7127.62
-8517.96
-9119.74
-9419.4
-9585.66
-9685.02
-9747.18
-9786.88
-9812.16
-9827.72
-9836.47
-9840.32
-9840.54
-9838.05
-9833.47
-9827.3
-9819.88
-9811.5
-9802.38
-9792.68
-9782.56
-9772.14
-9761.52
-9750.78
-9740.02
-9729.31
-9718.7
-9708.27
-9698.07
-9688.16
-9678.59
-9669.41
-9660.67
-9652.41
-9644.68
-9637.51
-9630.95
-9625.02
-9619.75
-9615.19
-9611.34
-9608.23
-9605.87
-9604.28
-9603.46
-9603.42
-9604.15
-9605.66
-9607.93
-9610.95
-9614.71
-9619.17
-9624.32
-9630.13
-9636.56
-9643.59
-9651.17
-9659.26
-9667.83
-9676.83
-9686.22
-9695.95
-9705.97
-9716.24
-9726.71
-9737.34
-9748.07
-9758.87
-9769.68
-9780.46
-9791.17
-9801.77
-9812.2
-9822.43
-9832.41
-9842.08
-9851.41
-9860.33
-9868.78
-9876.7
-9883.99
-9890.57
-9896.29
-9901.02
-9904.55
-9906.62
-9906.9
-9904.93
-9900.07
-9891.45
-9877.81
-9857.25
-9826.87
-9781.99
-9714.59
-9609.92
-9438.32
-9133.28
-8526.1
-7130.33
-7127.49
-8517.58
-9119.1
-9418.51
-9584.5
-9683.61
-9745.5
-9784.93
-9809.94
-9825.23
-9833.7
-9837.27
-9837.22
-9834.43
-9829.57
-9823.1
-9815.39
-9806.72
-9797.3
-9787.3
-9776.89
-9766.16
-9755.24
-9744.22
-9733.16
-9722.16
-9711.27
-9700.56
-9690.09
-9679.92
-9670.09
-9660.67
-9651.7
-9643.22
-9635.28
-9627.92
-9621.18
-9615.09
-9609.68
-9604.99
-9601.03
-9597.83
-9595.4
-9593.76
-9592.91
-9592.86
-9593.61
-9595.15
-9597.47
-9600.56
-9604.4
-9608.97
-9614.24
-9620.19
-9626.79
-9633.99
-9641.76
-9650.05
-9658.84
-9668.07
-9677.69
-9687.67
-9697.95
-9708.48
-9719.22
-9730.12
-9741.13
-9752.2
-9763.3
-9774.36
-9785.35
-9796.23
-9806.93
-9817.43
-9827.68
-9837.62
-9847.2
-9856.38
-9865.08
-9873.23
-9880.76
-9887.55
-9893.5
-9898.44
-9902.17
-9904.43
-9904.9
-9903.11
-9898.42
-9889.97
-9876.49
-9856.08
-9825.86
-9781.12
-9713.86
-9609.33
-9437.87