/*--------------------------------*- C++ -*----------------------------------*\
  =========                 |
  \\      /  F ield         | OpenFOAM: The Open Source CFD Toolbox
   \\    /   O peration     | Website:  https://openfoam.org
    \\  /    A nd           | Version:  9
     \\/     M anipulation  |
\*---------------------------------------------------------------------------*/
FoamFile
{
    format      ascii;
    class       volScalarField;
    location    "0.3";
    object      gradTx;
}
// * * * * * * * * * * * * * * * * * * * * * * * * * * * * * * * * * * * * * //

dimensions      [0 -1 0 1 0 0 0];

internalField   nonuniform List<scalar> 
200000
(
5080.17
2354.61
1431.76
1025.09
805.225
669.018
576.946
511.028
461.925
424.283
394.8
371.31
352.326
336.78
323.884
313.03
303.743
295.64
288.405
281.774
275.523
269.463
263.427
257.274
250.881
244.143
236.972
229.292
221.044
212.181
202.669
192.486
181.621
170.077
157.865
145.008
131.538
117.498
102.936
87.9102
72.4855
56.7323
40.7263
24.5471
8.27783
-7.99649
-24.1896
-40.2152
-55.9877
-71.4237
-86.4423
-100.967
-114.925
-128.249
-140.879
-152.76
-163.846
-174.099
-183.486
-191.987
-199.588
-206.284
-212.079
-216.988
-221.033
-224.244
-226.661
-228.333
-229.314
-229.67
-229.472
-228.799
-227.739
-226.387
-224.844
-223.223
-221.642
-220.232
-219.135
-218.507
-218.52
-219.368
-221.273
-224.492
-229.33
-236.158
-245.433
-257.744
-273.859
-294.823
-322.102
-357.837
-405.311
-469.856
-560.789
-696.075
-915.223
-1321.37
-2243.87
-4969.26
10206.7
5944.74
3993.43
2972.59
2372.01
1984.93
1718.19
1525.25
1380.65
1269.38
1181.99
1112.24
1055.79
1009.52
971.099
938.742
911.039
886.851
865.242
845.426
826.736
808.603
790.535
772.106
752.952
732.756
711.254
688.223
663.483
636.894
608.354
577.797
545.193
510.547
473.896
435.308
394.88
352.736
309.026
263.924
217.624
170.337
122.29
73.7225
24.8843
-23.9693
-72.5795
-120.687
-168.035
-214.374
-259.459
-303.061
-344.963
-384.962
-422.877
-458.545
-491.826
-522.603
-550.785
-576.304
-599.12
-619.221
-636.618
-651.353
-663.493
-673.129
-680.381
-685.393
-688.332
-689.392
-688.787
-686.755
-683.558
-679.479
-674.826
-669.932
-665.155
-660.884
-657.544
-655.6
-655.569
-658.029
-663.64
-673.168
-687.52
-707.792
-735.345
-771.908
-819.747
-881.917
-962.684
-1068.24
-1207.94
-1396.77
-1660.09
-2044.41
-2642.84
-3662.1
-5612.37
-9873.83
13379.5
8603.33
6138.03
4722.93
3837.22
3243.86
2825.07
2517.54
2284.79
2104.48
1962.21
1848.26
1755.8
1679.86
1616.7
1563.44
1517.78
1477.87
1442.17
1409.39
1378.45
1348.39
1318.4
1287.79
1255.94
1222.34
1186.55
1148.19
1106.97
1062.65
1015.07
964.12
909.748
851.963
790.828
726.456
659.01
588.698
515.771
440.518
363.262
284.358
204.184
123.14
41.6429
-39.8815
-121.001
-201.282
-280.298
-357.629
-432.87
-505.635
-575.563
-642.317
-705.593
-765.119
-820.661
-872.025
-919.056
-961.643
-999.719
-1033.26
-1062.29
-1086.87
-1107.12
-1123.2
-1135.28
-1143.63
-1148.51
-1150.25
-1149.21
-1145.78
-1140.39
-1133.52
-1125.69
-1117.43
-1109.35
-1102.1
-1096.37
-1092.93
-1092.65
-1096.47
-1105.48
-1120.94
-1144.32
-1177.43
-1222.46
-1282.21
-1360.3
-1461.61
-1592.84
-1763.61
-1988.21
-2288.86
-2701.95
-3290.7
-4172.83
-5585.3
-8048.86
-12824.2
15631.9
10651
7922.91
6265.13
5179.12
4426.89
3883.35
3477.59
3166.92
2924.23
2731.58
2576.57
2450.35
2346.39
2259.74
2186.52
2123.64
2068.59
2019.26
1973.9
1930.99
1889.24
1847.53
1804.88
1760.46
1713.54
1663.51
1609.86
1552.18
1490.13
1423.49
1352.11
1275.92
1194.94
1109.24
1019
924.441
825.854
723.594
618.066
509.725
399.067
286.624
172.959
58.6537
-55.6923
-169.473
-282.08
-392.913
-501.385
-606.927
-708.998
-807.09
-900.73
-989.491
-1072.99
-1150.91
-1222.96
-1288.93
-1348.67
-1402.07
-1449.12
-1489.83
-1524.3
-1552.69
-1575.21
-1592.14
-1603.8
-1610.61
-1612.99
-1611.45
-1606.55
-1598.9
-1589.14
-1577.99
-1566.23
-1554.68
-1544.23
-1535.88
-1530.67
-1529.8
-1534.57
-1546.49
-1567.26
-1598.91
-1643.88
-1705.12
-1786.37
-1892.45
-2029.74
-2206.93
-2436.24
-2735.48
-3131.6
-3667.16
-4412.93
-5493.92
-7148.01
-9873.69
-14853.4
17377.2
12301.2
9430.58
7622.63
6398.99
5528.49
4886.34
4399.4
4022.14
3724.81
3487.17
3294.97
3137.83
3007.98
2899.45
2807.51
2728.39
2658.97
2596.63
2539.17
2484.7
2431.58
2378.39
2323.91
2267.07
2206.95
2142.77
2073.88
1999.76
1919.98
1834.26
1742.41
1644.33
1540.06
1429.7
1313.47
1191.66
1064.66
932.904
796.931
657.325
514.726
369.82
223.332
76.0148
-71.36
-218.01
-363.152
-506.01
-645.828
-781.871
-913.443
-1039.89
-1160.59
-1275.01
-1382.65
-1483.09
-1575.96
-1661
-1738
-1806.84
-1867.47
-1919.93
-1964.35
-2000.91
-2029.9
-2051.67
-2066.65
-2075.34
-2078.31
-2076.21
-2069.75
-2059.7
-2046.91
-2032.29
-2016.82
-2001.56
-1987.66
-1976.35
-1968.99
-1967.07
-1972.25
-1986.4
-2011.68
-2050.59
-2106.13
-2181.94
-2282.55
-2413.76
-2583.14
-2800.85
-3080.96
-3443.5
-3918.03
-4549.91
-5412.09
-6629.27
-8432.46
-11299.9
-16374.4
18809.1
13683
10730
8826.9
7508.75
6551.51
5833.09
5280.69
4847.97
4503.96
4227.12
4001.99
3817.12
3663.8
3535.26
3426.08
3331.87
3249
3174.39
3105.44
3039.89
2975.79
2911.45
2845.39
2776.32
2703.15
2624.92
2540.85
2450.32
2352.81
2247.98
2135.59
2015.55
1887.88
1752.73
1610.37
1461.14
1305.53
1144.09
977.456
806.359
631.583
453.97
274.408
93.8219
-86.842
-266.624
-444.562
-619.706
-791.127
-957.924
-1119.24
-1274.27
-1422.28
-1562.57
-1694.55
-1817.69
-1931.57
-2035.84
-2130.24
-2214.64
-2288.96
-2353.26
-2407.68
-2452.47
-2487.95
-2514.57
-2532.83
-2543.37
-2546.87
-2544.12
-2535.98
-2523.4
-2507.4
-2489.1
-2469.67
-2450.42
-2432.71
-2418.05
-2408.07
-2404.54
-2409.46
-2425.05
-2453.84
-2498.8
-2563.4
-2651.87
-2769.38
-2922.5
-3119.68
-3372.13
-3695.06
-4109.75
-4646.95
-5352.79
-6299.86
-7610.08
-9507.39
-12456.6
-17580.8
20031.1
14876
11872.5
9907.27
8523.61
7502.98
6726.28
6121.98
5643.93
5260.82
4950.5
4696.79
4487.53
4313.34
4166.82
4042.02
3934.02
3838.74
3752.71
3672.95
3596.88
3522.26
3447.13
3369.78
3288.71
3202.65
3110.49
3011.33
2904.42
2789.17
2665.19
2532.2
2390.09
2238.91
2078.82
1910.14
1733.3
1548.87
1357.5
1159.96
957.103
749.871
539.26
326.327
112.167
-102.095
-315.319
-526.365
-734.104
-937.432
-1135.28
-1326.64
-1510.54
-1686.1
-1852.53
-2009.09
-2155.17
-2290.26
-2413.94
-2525.92
-2626.02
-2714.16
-2790.4
-2854.91
-2907.98
-2949.99
-2981.45
-3002.99
-3015.33
-3019.28
-3015.77
-3005.81
-2990.53
-2971.12
-2948.88
-2925.22
-2901.63
-2879.72
-2861.25
-2848.09
-2842.31
-2846.2
-2862.31
-2893.52
-2943.17
-3015.18
-3114.21
-3245.99
-3417.64
-3638.25
-3919.67
-4277.81
-4734.5
-5320.81
-6082.6
-7091.19
-8465.47
-10423.8
-13422.8
-18575.7
21104.3
15931.1
12895.2
10888.2
9458.5
8391.45
7570.49
6925.49
6410.94
5995.63
5657.21
5379.14
5148.81
4956.39
4794.01
4655.28
4534.86
4428.3
4331.76
4241.94
4155.97
4071.32
3985.81
3897.49
3804.68
3705.92
3599.98
3485.8
3362.55
3229.57
3086.39
2932.72
2768.44
2593.59
2408.39
2213.2
2008.52
1795.02
1573.45
1344.72
1109.8
869.799
625.862
379.218
131.138
-117.073
-364.094
-608.602
-849.288
-1084.87
-1314.11
-1535.84
-1748.93
-1952.37
-2145.21
-2326.63
-2495.91
-2652.45
-2795.76
-2925.51
-3041.47
-3143.58
-3231.89
-3306.58
-3367.98
-3416.55
-3452.88
-3477.67
-3491.74
-3496.06
-3491.67
-3479.75
-3461.57
-3438.51
-3412.07
-3383.84
-3355.53
-3328.98
-3306.17
-3289.24
-3280.5
-3282.53
-3298.15
-3330.59
-3383.49
-3461.14
-3568.59
-3711.95
-3898.76
-4138.54
-4443.54
-4829.96
-5319.81
-5944
-6747.73
-7800.84
-9219.66
-11218.7
-14249.4
-19420
22067.4
16882.5
13824.9
11789.1
10326.7
9225.56
8371.08
7694.43
7150.83
6709.38
6347.76
6049.27
5801.07
5593
5416.86
5265.91
5134.5
5017.81
4911.72
4812.64
4717.41
4623.29
4527.83
4428.89
4324.61
4213.37
4093.78
3964.68
3825.14
3674.42
3512
3337.56
3150.98
2952.32
2741.81
2519.89
2287.14
2044.29
1792.24
1531.99
1264.68
991.556
713.929
433.2
150.818
-131.73
-412.939
-691.3
-965.322
-1233.54
-1494.56
-1747.02
-1989.66
-2221.31
-2440.9
-2647.48
-2840.24
-3018.48
-3181.67
-3329.4
-3461.42
-3577.65
-3678.15
-3763.12
-3832.94
-3888.12
-3929.31
-3957.32
-3973.08
-3977.67
-3972.27
-3958.21
-3936.93
-3909.98
-3879.03
-3845.87
-3812.43
-3780.76
-3753.05
-3731.69
-3719.23
-3718.5
-3732.61
-3765.02
-3819.7
-3901.21
-4014.91
-4167.21
-4365.96
-4620.92
-4944.57
-5353.19
-5868.73
-6521.73
-7356.63
-8441.95
-9892.04
-11918.7
-14970.5
-20152.4
22946.8
17754
14681.5
12625.5
11139.6
10013.3
9133.46
8432.39
7865.93
7403.54
7023.05
6707.76
6444.66
6223.4
6035.55
5874.08
5733.06
5607.43
5492.77
5385.24
5281.44
5178.39
5073.44
4964.26
4848.81
4725.3
4592.22
4448.3
4292.51
4124.05
3942.35
3747.06
3538.05
3315.4
3079.4
2830.52
2569.42
2296.94
2014.08
1721.98
1421.93
1115.3
803.595
488.379
171.284
-146.018
-461.835
-774.47
-1082.25
-1383.52
-1676.71
-1960.3
-2232.87
-2493.1
-2739.78
-2971.86
-3188.41
-3388.64
-3571.96
-3737.9
-3886.19
-4016.72
-4129.55
-4224.92
-4303.22
-4365.05
-4411.12
-4442.32
-4459.71
-4464.47
-4457.93
-4441.55
-4416.93
-4385.81
-4350.03
-4311.58
-4272.57
-4235.26
-4202.07
-4175.6
-4158.64
-4154.24
-4165.75
-4196.88
-4251.85
-4335.46
-4453.31
-4612.05
-4819.71
-5086.22
-5424.14
-5849.73
-6384.75
-7059.31
-7917.16
-9025.72
-10497.9
-12543.7
-15609.6
-20799.1
23761.1
18562.7
15479.7
13409.5
11906.4
10761.6
9862.75
9142.98
8558.74
8079.83
7684.27
7355.38
7080.11
6847.97
6650.33
6479.97
6330.74
6197.31
6075.06
5959.9
5848.22
5736.82
5622.86
5503.81
5377.48
5241.94
5095.54
4936.91
4764.93
4578.73
4377.7
4161.46
3929.89
3683.09
3421.37
3145.29
2855.57
2553.16
2239.16
1914.86
1581.68
1241.16
894.969
544.845
192.606
-159.888
-510.754
-858.106
-1200.08
-1534.84
-1860.63
-2175.77
-2478.67
-2767.86
-3042.01
-3299.93
-3540.59
-3763.12
-3966.83
-4151.23
-4316
-4461.01
-4586.32
-4692.2
-4779.09
-4847.61
-4898.56
-4932.94
-4951.89
-4956.71
-4948.88
-4929.99
-4901.82
-4866.24
-4825.29
-4781.15
-4736.12
-4692.66
-4653.38
-4621.11
-4598.84
-4589.84
-4597.68
-4626.3
-4680.1
-4764.11
-4884.12
-5046.94
-5260.74
-5535.55
-5883.91
-6322.03
-6871.42
-7561.8
-8436.3
-9561.51
-11049.2
-13108.3
-16183.9
-21378.6
24523.6
19321.4
16231
14150.5
12635.1
11476.6
10563.6
9829.64
9231.77
8740.06
8332.68
7993.04
7708.05
7467.13
7261.51
7083.81
6927.68
6787.59
6658.7
6536.73
6417.85
6298.67
6176.16
6047.65
5910.75
5763.41
5603.87
5430.64
5242.52
5038.59
4818.18
4580.91
4326.65
4055.52
3767.88
3464.34
3145.73
2813.07
2467.61
2110.74
1744.05
1369.24
988.138
602.674
214.848
-173.289
-559.659
-942.182
-1318.8
-1687.5
-2046.34
-2393.45
-2727.1
-3045.65
-3347.65
-3631.77
-3896.87
-4142
-4366.4
-4569.51
-4750.98
-4910.66
-5048.61
-5165.13
-5260.67
-5335.94
-5391.8
-5429.32
-5449.76
-5454.54
-5445.27
-5423.68
-5391.7
-5351.39
-5304.94
-5254.71
-5203.19
-5153.04
-5107.07
-5068.29
-5039.92
-5025.41
-5028.53
-5053.42
-5104.67
-5187.46
-5307.76
-5472.5
-5689.95
-5970.16
-6325.68
-6772.59
-7332.17
-8033.8
-8920.11
-10057
-11555.6
-13623.8
-16706.1
-21904.3
25244.6
20039.7
16944.1
14856.2
13331.9
12163.4
11239.9
10495.5
9887.36
9385.94
8969.56
8621.64
8329.11
8081.32
7869.4
7685.8
7524.01
7378.34
7243.74
7115.74
6990.34
6863.95
6733.38
6595.77
6448.62
6289.73
6117.22
5929.51
5725.32
5503.66
5263.84
5005.46
4728.37
4432.74
4118.98
3787.74
3439.95
3076.75
2699.48
2309.69
1909.1
1499.59
1083.16
661.923
238.065
-186.167
-608.498
-1026.65
-1438.38
-1841.46
-2233.79
-2613.31
-2978.12
-3326.45
-3656.67
-3967.35
-4257.24
-4525.29
-4770.66
-4992.74
-5191.13
-5365.68
-5516.44
-5643.71
-5748
-5830.06
-5890.84
-5931.48
-5953.35
-5957.99
-5947.12
-5922.65
-5886.62
-5841.27
-5788.98
-5732.26
-5673.79
-5616.43
-5563.16
-5517.2
-5481.93
-5461.02
-5458.41
-5478.41
-5525.78
-5605.86
-5724.72
-5889.42
-6108.29
-6391.39
-6751.24
-7203.79
-7770.15
-8479.4
-9373.77
-10518.7
-12024.7
-14099.1
-17185.9
-22386.5
25931.8
20724.9
17625.6
15532.5
14001.9
12826.3
11895.2
11143.2
10527.6
10019.1
9596.07
9242.04
8943.91
8690.97
8474.26
8286.09
8119.81
7969.57
7830.14
7696.88
7565.6
7432.56
7294.38
7148.08
6990.99
6820.8
6635.51
6433.44
6213.24
5973.88
5714.61
5435.03
5135.01
4814.72
4474.62
4115.46
3738.23
3344.17
2934.77
2511.7
2076.85
1632.24
1180.07
722.631
262.302
-198.471
-657.214
-1111.45
-1558.73
-1996.65
-2422.91
-2835.27
-3231.66
-3610.16
-3968.99
-4306.6
-4621.61
-4912.88
-5179.51
-5420.81
-5636.35
-5825.96
-5989.68
-6127.83
-6240.97
-6329.88
-6395.58
-6439.32
-6462.56
-6466.94
-6454.34
-6426.78
-6386.47
-6335.81
-6277.32
-6213.72
-6147.86
-6082.76
-6021.61
-5967.79
-5924.88
-5896.71
-5887.4
-5901.42
-5943.67
-6019.64
-6135.51
-6298.4
-6516.71
-6800.52
-7162.28
-7617.87
-8188.22
-8902.17
-9801.65
-10951.8
-12462.6
-14541.1
-17630.8
-22833
26590.9
21382.7
18280.9
16184.3
14649.3
13468.7
12532.5
11775.1
11154.4
10640.9
10213.3
9855
9552.96
9296.4
9076.26
8884.75
8715.06
8561.19
8417.77
8279.96
8143.44
8004.28
7858.97
7704.35
7537.63
7356.38
7158.48
6942.19
6706.07
6449.02
6170.3
5869.45
5546.38
5201.29
4834.68
4447.37
4040.45
3615.26
3173.41
2716.73
2247.25
1767.17
1278.87
784.817
287.598
-210.144
-705.734
-1196.49
-1679.76
-2152.95
-2613.55
-3059.17
-3487.55
-3896.6
-4284.42
-4649.3
-4989.76
-5304.57
-5592.73
-5853.5
-6086.41
-6291.26
-6468.1
-6617.26
-6739.33
-6835.14
-6905.79
-6952.6
-6977.14
-6981.17
-6966.68
-6935.85
-6891.03
-6834.77
-6769.78
-6698.91
-6625.22
-6551.89
-6482.28
-6419.97
-6368.69
-6332.46
-6315.54
-6322.55
-6358.56
-6429.14
-6540.59
-6700.12
-6916.14
-7198.75
-7560.38
-8016.82
-8588.86
-9305.18
-10207.5
-11360.5
-12874.2
-14955.1
-18046.7
-23249.8
27226.7
22017.7
18914.2
16815.3
15277.4
14093.7
13154
12393.2
11769.1
11252.6
10822
10461.1
10156.7
9897.83
9675.49
9481.74
9309.63
9153.02
9006.37
8864.72
8723.54
8578.78
8426.77
8264.2
8088.16
7896.1
7685.8
7455.42
7203.45
6928.77
6630.58
6308.43
5962.22
5592.2
5198.92
4783.27
4346.42
3889.84
3415.27
2924.67
2420.23
1904.33
1379.52
848.48
313.978
-221.134
-753.976
-1281.66
-1801.33
-2310.2
-2805.55
-3284.81
-3745.56
-4185.53
-4602.68
-4995.16
-5361.39
-5700.02
-6009.97
-6290.46
-6540.95
-6761.22
-6951.33
-7111.61
-7242.69
-7345.45
-7421.06
-7470.92
-7496.7
-7500.29
-7483.78
-7449.5
-7399.95
-7337.83
-7266.01
-7187.52
-7105.57
-7023.54
-6944.95
-6873.53
-6813.22
-6768.16
-6742.79
-6741.87
-6770.59
-6834.64
-6940.4
-7095.16
-7307.39
-7587.18
-7946.94
-8402.4
-8974.25
-9691.03
-10594.3
-11748.6
-13263.5
-15345.7
-18438.2
-23641.7
27842.7
22633.2
19528.7
17428.4
15888.8
14703.3
13761.7
12999
12373.2
11855
11423
11060.8
10755.2
10495.3
10271.9
10076.9
9903.28
9744.73
9595.59
9450.72
9305.46
9155.59
8997.29
8827.14
8642.09
8439.46
8216.95
7972.63
7704.92
7412.66
7095.01
6751.53
6382.12
5987.07
5566.99
5122.82
4655.86
4167.67
3660.12
3135.33
2595.64
2043.61
1481.97
913.596
341.459
-231.386
-801.847
-1366.83
-1923.27
-2468.18
-2998.65
-3511.92
-4005.38
-4476.61
-4923.41
-5343.8
-5736.08
-6098.79
-6430.79
-6731.2
-6999.47
-7235.34
-7438.85
-7610.36
-7750.53
-7860.29
-7940.87
-7993.77
-8020.73
-8023.78
-8005.12
-7967.22
-7912.73
-7844.5
-7765.56
-7679.11
-7588.53
-7497.35
-7409.27
-7328.2
-7258.22
-7203.65
-7169.06
-7159.35
-7179.83
-7236.32
-7335.28
-7484.06
-7691.17
-7966.75
-8323.16
-8776.11
-9346.23
-10061.9
-10964.6
-12118.8
-13633.9
-15716.3
-18809
-24012.8
28441.5
23231.7
20126.8
18025.9
16485.6
15299.3
14357
13593.7
12967.3
12448.8
12016.7
11654.4
11348.8
11088.9
10865.3
10670
10495.6
10335.9
10184.9
10037.4
9888.6
9734.09
9569.92
9392.54
9198.77
8985.82
8751.3
8493.19
8209.86
7900.09
7563.02
7198.21
6805.57
6385.42
5938.43
5465.64
4968.4
4448.42
3907.69
3348.48
2773.29
2184.87
1586.12
980.12
370.045
-240.844
-849.243
-1451.85
-2045.39
-2626.66
-3192.57
-3740.15
-4266.63
-4769.42
-5246.15
-5694.73
-6113.31
-6500.34
-6854.6
-7175.14
-7461.35
-7712.96
-7930
-8112.85
-8262.17
-8378.97
-8464.54
-8520.45
-8548.55
-8550.97
-8530.05
-8488.38
-8428.77
-8354.2
-8267.87
-8173.15
-8073.57
-7972.83
-7874.82
-7783.58
-7703.37
-7638.65
-7594.14
-7574.88
-7586.29
-7634.3
-7725.47
-7867.21
-8068.08
-8338.24
-8690.07
-9139.24
-9706.34
-10419.7
-11320.7
-12473.7
-13988
-16069.9
-19162.3
-24365.9
29025.2
23815.4
20710.4
18609.5
17069.2
15883
14941
14178.1
13552.3
13034.5
12603.2
12241.9
11937.2
11678.2
11455.4
11260.4
11086.1
10925.9
10773.7
10624.1
10472.2
10313.5
10143.9
9959.59
9757.4
9534.39
9288.06
9016.34
8717.52
8390.33
8033.91
7647.8
7231.93
6786.65
6312.7
5811.19
5283.58
4731.68
4157.62
3563.81
2952.94
2327.92
1691.84
1047.98
399.728
-249.455
-896.05
-1536.54
-2167.44
-2785.34
-3386.95
-3969.11
-4528.87
-5063.45
-5570.36
-6047.35
-6492.45
-6904.01
-7280.7
-7621.53
-7925.84
-8193.32
-8424
-8618.26
-8776.81
-8900.68
-8991.24
-9050.15
-9079.34
-9081.06
-9057.77
-9012.2
-8947.28
-8866.17
-8772.22
-8668.94
-8560.04
-8449.39
-8341.03
-8239.17
-8148.22
-8072.78
-8017.74
-7988.25
-7989.86
-8028.6
-8111.11
-8244.89
-8438.55
-8702.28
-9048.48
-9492.82
-10055.8
-10765.9
-11664.2
-12815
-14327.8
-16408.6
-19500.3
-24703.5
29595.2
24385.5
21280.9
19180.3
17640.7
16455.4
15514.4
14752.7
14128.4
13612.1
13182.6
12823.1
12520.2
12262.9
12041.5
11847.8
11674.2
11514
11361.1
11210
11055.5
10893
10718.2
10527.4
10317
10084.2
9826.32
9541.16
9227
8882.53
8506.85
8099.49
7660.43
7190.05
6689.13
6158.87
5600.83
5016.94
4409.46
3780.96
3134.29
2472.53
1798.97
1117.1
430.488
-257.169
-942.146
-1620.71
-2289.16
-2943.89
-3581.4
-4198.34
-4791.56
-5358.14
-5895.41
-6400.98
-6872.76
-7309.01
-7708.29
-8069.54
-8392.06
-8675.51
-8919.92
-9125.65
-9293.47
-9424.44
-9520
-9581.89
-9612.14
-9613.09
-9587.34
-9537.75
-9467.38
-9379.55
-9277.76
-9165.68
-9047.19
-8926.31
-8807.24
-8694.35
-8592.21
-8505.58
-8439.46
-8399.15
-8390.32
-8419.09
-8492.21
-8617.25
-8802.88
-9059.33
-9399.03
-9837.65
-10395.7
-11101.6
-11996.4
-13144.5
-14655
-16734.3
-19824.9
-25027.7
30152.4
24943
21838.9
19739.2
18200.8
17016.8
16077.5
15317.8
14695.6
14181.7
13754.7
13397.7
13097.4
12842.4
12623.2
12431.2
12258.8
12099.3
11946.2
11794
11637.3
11471.4
11291.9
11094.8
10876.6
10634.3
10365
10066.6
9737.29
9375.68
8980.86
8552.38
8090.22
7594.79
7066.96
6507.98
5919.52
5303.64
4662.73
3999.5
3316.97
2618.42
1907.32
1187.34
462.293
-263.935
-987.398
-1704.15
-2410.27
-3101.95
-3775.48
-4427.31
-5054.13
-5652.83
-6220.57
-6754.84
-7253.43
-7714.45
-8136.42
-8518.19
-8859.01
-9158.5
-9416.68
-9633.95
-9811.06
-9949.16
-10049.7
-10114.6
-10145.8
-10146
-10117.7
-10064
-9988.03
-9893.33
-9783.52
-9662.44
-9534.12
-9402.73
-9272.66
-9148.41
-9034.7
-8936.45
-8858.8
-8807.17
-8787.35
-8805.57
-8868.68
-8984.32
-9161.23
-9409.69
-9742.17
-10174.3
-10726.8
-11427.7
-12318.5
-13463.2
-14971.1
-17048.4
-20137.8
-25339.9
30697.4
25488.4
22385.1
20286.6
18749.6
17567.5
16630.4
15873.2
15253.8
14743
14319
13965.2
13668
13416
13199.5
13009.8
12839.2
12680.7
12528
12375.1
12216.6
12047.7
11863.7
11660.7
11434.9
11183.3
10902.9
10591.5
10247.2
9868.66
9454.88
9005.43
8520.3
7999.95
7445.3
6857.71
6238.92
5591.12
4916.83
4218.93
3500.59
2765.27
2016.65
1258.58
495.098
-269.706
-1031.67
-1786.62
-2530.45
-3259.1
-3968.68
-4655.46
-5315.91
-5946.77
-6545.05
-7108.07
-7633.5
-8119.36
-8564.06
-8966.39
-9325.54
-9641.11
-9913.11
-10141.9
-10328.4
-10473.6
-10579.1
-10646.9
-10679.2
-10678.5
-10647.6
-10589.7
-10508.1
-10406.4
-10288.4
-10158.2
-10019.8
-9877.72
-9736.38
-9600.5
-9474.92
-9364.7
-9275.14
-9211.77
-9180.51
-9187.71
-9240.29
-9345.99
-9513.61
-9753.5
-10078.2
-10503.3
-11049.5
-11745.1
-12631.2
-13772.1
-15277
-17352
-20439.9
-25641.3
31230.5
26021.9
22919.6
20822.4
19287.3
18107.5
17173
16418.8
15802.7
15295.3
14874.9
14524.8
14231.2
13982.8
13769.4
13582.5
13414.1
13257.2
13105.1
12951.9
12792
12620.4
12432.3
12223.6
11990.6
11729.9
11438.7
11114.5
10755.5
10360.2
9927.7
9457.47
8949.57
8404.49
7823.21
7207.17
6558.22
5878.65
5171.13
4438.7
3684.68
2912.73
2126.7
1330.66
528.844
-274.439
-1074.81
-1867.89
-2649.34
-3414.91
-4160.49
-4882.15
-5576.2
-6239.18
-6867.96
-7459.7
-8011.96
-8522.65
-8990.07
-9412.95
-9790.43
-10122.1
-10407.9
-10648.2
-10844
-10996.3
-11106.9
-11177.6
-11210.8
-11209.2
-11175.7
-11113.5
-11026.2
-10917.4
-10791.2
-10651.7
-10503.2
-10350.2
-10197.4
-10049.7
-9911.97
-9789.53
-9687.75
-9612.32
-9569.27
-9565.05
-9606.69
-9702.01
-9859.9
-10090.8
-10407.1
-10824.8
-11364.3
-12054
-12935.1
-14071.8
-15573.4
-17645.9
-20732.2
-25932.7
31751.4
26543.4
23442.1
21346.6
19813.6
18636.3
17704.8
16953.9
16341.5
15838
15421.7
15075.7
14786.2
14541.6
14331.9
14148.1
13982.4
13827.3
13676.3
13523.1
13362.1
13188.1
12996.2
12782.2
12542.2
12272.8
11970.9
11634.3
11260.8
10849
10398
9907.27
9376.84
8807.29
8199.63
7555.38
6876.52
6165.43
5424.93
4658.2
3868.75
3060.39
2237.18
1403.4
563.46
-278.095
-1116.68
-1947.69
-2766.58
-3568.89
-4350.31
-5106.71
-5834.21
-6529.19
-7188.35
-7808.71
-8387.71
-8923.13
-9413.2
-9856.57
-10252.3
-10600
-10899.6
-11151.5
-11356.5
-11515.9
-11631.4
-11705.1
-11739.2
-11736.7
-11700.5
-11634.1
-11541
-11425.1
-11290.6
-11141.7
-10982.9
-10819
-10654.6
-10494.9
-10344.9
-10210
-10095.8
-10008.1
-9952.97
-9937.04
-9967.43
-10052
-10199.8
-10421.3
-10729
-11138.8
-11671.3
-12354.8
-13230.6
-14362.9
-15860.9
-17930.8
-21015.2
-26214.9
32259.8
27052.4
23952.3
21858.6
20327.8
19153.4
18225.1
17477.9
16869.4
16370.2
15958.3
15616.8
15331.7
15091.3
14885.5
14705.3
14542.5
14389.6
14240
14087.1
13925.3
13749.2
13553.8
13334.8
13088.1
12810.2
12498
12149.2
11761.5
11333.6
10864.4
10353.5
9800.83
9207.12
8573.41
7901.3
7192.86
6450.6
5677.46
4876.78
4052.24
3207.82
2347.78
1476.58
598.862
-280.638
-1157.11
-2025.75
-2881.78
-3720.55
-4537.53
-5328.41
-6089.12
-6815.87
-7505.2
-8154
-8759.55
-9319.55
-9832.13
-10295.9
-10709.8
-11073.4
-11386.7
-11650
-11864.3
-12030.8
-12151.2
-12227.7
-12262.8
-12259.4
-12220.5
-12149.8
-12050.9
-11927.9
-11785.1
-11626.8
-11457.7
-11282.7
-11106.8
-10934.9
-10772.6
-10625.2
-10498.4
-10398.2
-10330.9
-10303
-10321.9
-10395.6
-10533.1
-10744.9
-11043.7
-11445.3
-11970.5
-12647.6
-13517.8
-14645.5
-16139.7
-18206.8
-21289.4
-26488.1
32755.2
27548.5
24449.6
22357.7
20829.4
19657.9
18733.2
17989.8
17385.6
16890.9
16483.7
16146.8
15866.4
15630.6
15429
15252.6
15093
14942.6
14794.6
14642.3
14480
14302
14103.4
13879.6
13626.5
13340.5
13018.4
12657.6
12256.1
11812.4
11325.4
10794.6
10220.2
9602.68
8943.34
8243.8
7506.21
6733.22
5927.9
5093.74
4234.56
3354.55
2458.14
1550
634.951
-282.04
-1195.96
-2101.78
-2994.54
-3869.35
-4721.51
-5546.5
-6340.07
-7098.26
-7817.45
-8494.38
-9126.23
-9710.57
-10245.4
-10729.4
-11161.3
-11540.7
-11867.5
-12142.2
-12365.6
-12539.1
-12664.5
-12743.9
-12779.9
-12775.5
-12734
-12659
-12554.4
-12424.3
-12273.1
-12105.5
-11926.2
-11740.2
-11552.6
-11368.7
-11193.9
-11033.9
-10894.5
-10781.8
-10702.1
-10662.2
-10669.5
-10732.1
-10859.1
-11061.1
-11350.8
-11744.1
-12261.8
-12932.3
-13796.8
-14919.7
-16410.1
-18474.3
-21554.9
-26752.7
33236.7
28030.6
24933.1
22843.2
21317.4
20149.1
19227.9
18488.6
17888.8
17398.8
16996.4
16664.6
16389.1
16158
15960.8
15788.4
15632.2
15484.6
15338.4
15187
15024.4
14844.9
14643.3
14415
14155.8
13861.9
13530.1
13157.9
12742.9
12283.8
11779.3
11229.1
10633.4
9992.62
9308.15
8581.68
7815.49
7012.32
6175.39
5308.31
4415.1
3500.08
2567.9
1623.4
671.619
-282.277
-1233.06
-2175.51
-3104.44
-4014.77
-4901.59
-5760.19
-6586.15
-7375.33
-8123.96
-8828.66
-9486.44
-10094.8
-10651.7
-11155.5
-11605.2
-12000.2
-12340.5
-12626.4
-12858.9
-13039.3
-13169.5
-13251.7
-13288.7
-13283.4
-13239.2
-13160
-13049.7
-12912.6
-12753.2
-12576.3
-12386.8
-12189.8
-11990.6
-11794.7
-11607.6
-11435
-11283
-11157.7
-11065.7
-11013.8
-11009.5
-11060.9
-11177.3
-11369.4
-11649.9
-12034.8
-12544.9
-13208.7
-14067.4
-15185.4
-16671.9
-18733.1
-21811.8
-27008.6
33703.4
28498
25401.9
23313.9
21790.8
20625.6
19708.2
18973.1
18377.8
17892.6
17495.3
17168.5
16898.1
16671.9
16479.3
16311.1
16158.5
16013.7
15869.6
15719.3
15556.6
15375.7
15171.5
14939
14673.9
14372.5
14031.5
13648.1
13220.1
12746
12224.6
11655.5
11038.9
10375.5
9666.48
8913.71
8119.56
7286.88
6419.01
5519.72
4593.18
3643.88
2676.65
1696.53
708.745
-281.332
-1268.27
-2246.64
-3211.05
-4156.23
-5077.06
-5968.66
-6826.42
-7646.04
-8423.59
-9155.55
-9838.83
-10470.8
-11049.3
-11572.7
-12039.9
-12450.3
-12803.7
-13100.7
-13342.1
-13529.3
-13664.3
-13749.4
-13787.2
-13781.1
-13734.4
-13651
-13535
-13391
-13223.5
-13037.4
-12837.9
-12630.1
-12419.5
-12211.6
-12012.3
-11827.3
-11662.8
-11525.1
-11420.7
-11356.9
-11340.9
-11381.2
-11487.1
-11669.2
-11940.5
-12317
-12819.5
-13476.5
-14329.4
-15442.5
-16925.1
-18983.3
-22060
-27255.7
34154.3
28949.5
25854.8
23768.8
22248.4
21086.5
20172.9
19442
18851.3
18371
17978.8
17657.2
17391.9
17170.6
16982.8
16818.8
16670
16528.3
16386.3
16237.3
16074.7
15892.8
15686.1
15449.7
15179.1
14870.6
14520.6
14126.5
13685.9
13197.3
12659.5
12072.1
11435.3
10749.8
10017
9238.61
8417.25
7555.83
6657.83
5727.15
4768.12
3785.4
2783.99
1769.11
746.196
-279.195
-1301.43
-2314.88
-3313.94
-4293.16
-5247.23
-6171.08
-7059.92
-7909.3
-8715.14
-9473.77
-10182
-10837
-11436.7
-11979.3
-12463.6
-12889
-13255.4
-13563.2
-13813.4
-14007.4
-14147
-14234.9
-14273.7
-14266.7
-14217.5
-14130
-14008.6
-13857.8
-13682.3
-13487.3
-13277.8
-13059.4
-12837.6
-12618
-12406.6
-12209.4
-12032.5
-11882.5
-11766.1
-11690.4
-11663
-11692.3
-11787.6
-11959.9
-12222.1
-12590.2
-13085.1
-13735.4
-14582.4
-15690.6
-17169.2
-19224.5
-22299.2
-27494
34588
29384
26290.6
24206.7
22689
21530.3
20620.5
19893.8
19307.8
18832.4
18445.3
18128.9
17868.8
17652.6
17469.5
17309.9
17164.9
17026.3
16886.7
16739
16576.8
16394
16185.1
15945
15669.3
15353.9
14995.5
14591.1
14138.4
13635.9
13082.3
12477.3
11821
11114.1
10358.2
9555.06
8707.34
7818.08
6890.88
5929.76
4939.21
3924.07
2889.48
1840.86
783.829
-275.863
-1332.39
-2379.92
-3412.68
-4424.99
-5411.38
-6366.6
-7285.69
-8164.03
-8997.4
-9782
-10514.5
-11192.1
-11812.4
-12373.7
-12874.7
-13314.8
-13693.8
-14012.2
-14270.9
-14471.4
-14615.7
-14706.3
-14746
-14738.2
-14686.6
-14595.2
-14468.5
-14311.1
-14127.9
-13924.1
-13705
-13476.2
-13243.4
-13012.4
-12789.2
-12579.9
-12391
-12229
-12100.7
-12013.3
-11974.6
-11993.1
-12078.2
-12240.8
-12493.9
-12853.7
-13341.2
-13984.8
-14826.1
-15929.4
-17404.1
-19456.4
-22529.1
-27722.9
35003.3
29800
26708
24626.2
23111.1
21955.7
21049.6
20327.2
19745.8
19275.3
18893.3
18582.1
18327.2
18116
17937.7
17782.5
17641.3
17506
17368.8
17222.6
17060.8
16877.3
16666.4
16423
16142.5
15820.7
15454.2
15040
14575.8
14059.9
13491.2
12869.2
12194.2
11466.8
10688.7
9861.72
8988.62
8072.53
7117.17
6126.7
5105.75
4059.3
2992.68
1911.48
821.494
-271.342
-1361.01
-2441.5
-3506.83
-4551.15
-5568.81
-6554.38
-7502.74
-8409.12
-9269.15
-10078.9
-10834.9
-11534.3
-12174.6
-12754.1
-13271.3
-13725.6
-14116.9
-14445.6
-14712.7
-14919.6
-15068.4
-15161.7
-15202.3
-15193.8
-15139.8
-15044.7
-14912.8
-14749
-14558.3
-14346
-14117.6
-13878.8
-13635.3
-13393.2
-13158.5
-12937.6
-12737
-12563.2
-12423.3
-12324.6
-12274.9
-12282.8
-12357.8
-12510.9
-12755.2
-13107
-13587.1
-14224.2
-15059.8
-16158.4
-17629.2
-19678.6
-22749.4
-27942.2
35399
30196.4
27105.7
25025.9
23513.5
22361.2
21458.9
20740.7
20163.8
19698.1
19321.1
19015.1
18765.2
18559.1
18385.5
18234.6
18097.3
17965.2
17830.5
17686
17524.8
17340.8
17128.2
16881.7
16596.6
16268.8
15894.7
15471.3
14996.1
14467.6
13884.4
13246.3
12553.3
11806.4
11007
10157.2
9259.84
8318.05
7335.7
6317.09
5266.98
4190.5
3093.14
1980.66
859.028
-265.645
-1387.16
-2499.32
-3595.96
-4671.07
-5718.81
-6733.58
-7710.11
-8643.48
-9529.19
-10363.2
-11141.9
-11862.3
-12521.9
-13118.8
-13651.7
-14119.8
-14522.9
-14861.6
-15136.7
-15349.8
-15503
-15598.9
-15640.5
-15631.3
-15575.2
-15476.4
-15339.6
-15169.7
-14971.8
-14751.4
-14514
-14265.4
-14011.7
-13758.8
-13513.1
-13281
-13069
-12883.9
-12732.8
-12623.1
-12562.7
-12560.3
-12625.6
-12769.5
-13005.3
-13349.2
-13822.1
-14452.9
-15283
-16377
-17844.1
-19890.7
-22959.6
-28151.4
35773.6
30571.6
27482.3
25404.5
23894.6
22745.5
21846.7
21132.6
20560.1
20099.2
19727.2
19426.1
19181.3
18980
18811.1
18664.5
18531.1
18402.2
18270.1
18127.2
17966.8
17782.4
17568.3
17319
17029.8
16696.4
16315.1
15883
15397.5
14857
14260.2
13606.7
12896.8
12131.3
11311.7
10440.3
9519.77
8553.53
7545.49
6500.08
5422.18
4317.08
3190.41
2048.1
896.266
-258.794
-1410.71
-2553.11
-3679.67
-4784.19
-5860.68
-6903.37
-7906.84
-8866.03
-9776.31
-10633.5
-11433.9
-12174.5
-12852.6
-13466.3
-14014.1
-14495.4
-14910
-15258.2
-15541.1
-15760.2
-15917.7
-16016.1
-16058.7
-16048.9
-15990.7
-15888.5
-15747.1
-15571.3
-15366.6
-15138.4
-14892.4
-14634.6
-14371
-14107.9
-13851.6
-13608.6
-13385.7
-13189.8
-13027.9
-12907.6
-12837
-12824.8
-12880.7
-13015.8
-13243.3
-13579.6
-14045.7
-14670.4
-15495.2
-16584.7
-18048.2
-20092
-23159.1
-28350
36125.8
30924.5
27836.4
25760.5
24253.1
23107
22211.8
21501.5
20933.4
20477
20109.7
19813.5
19573.6
19377.1
19212.7
19070.4
18940.7
18815
18685.4
18544.3
18384.7
18200.2
17984.7
17733
17440
17101.4
16713.5
16273.3
15778.1
15226.4
14616.8
13948.9
13223
12440
11601.4
10709.5
9767.21
8777.87
7745.55
6674.8
5570.62
4438.44
3284.03
2113.47
933.034
-250.816
-1431.55
-2602.63
-3757.56
-4889.98
-5993.75
-7062.94
-8092
-9075.72
-10009.3
-10888.6
-11709.7
-12469.4
-13165.1
-13794.7
-14356.9
-14850.8
-15276.2
-15633.6
-15923.9
-16148.8
-16310.4
-16411.3
-16454.8
-16444.5
-16384.5
-16279.1
-16133.2
-15952
-15740.8
-15505.2
-15251.1
-14984.5
-14711.6
-14438.7
-14172.4
-13919.2
-13685.9
-13479.6
-13307.5
-13177.2
-13096.8
-13075.2
-13122.1
-13248.8
-13468.4
-13797.4
-14257
-14875.9
-15695.6
-16780.8
-18240.8
-20282.1
-23347.4
-28537.5
36454.2
31253.5
28166.7
26092.6
24587.5
23444.3
22552.5
21846
21282
20830
20467.3
20175.8
19940.5
19748.5
19588.6
19450.3
19324.3
19201.8
19074.7
18935.3
18776.7
18592.1
18375.6
18121.6
17825.2
17481.9
17088
16640.2
16136.2
15574
14952.5
14271.2
13530.4
12731
11874.7
10963.7
10000.9
8989.97
7934.91
6840.41
5711.59
4554
3373.55
2176.45
969.154
-241.751
-1449.58
-2647.62
-3829.24
-4987.92
-6117.37
-7211.53
-8264.69
-9271.53
-10227.2
-11127.2
-11967.8
-12745.6
-13457.9
-14102.7
-14678.4
-15184.2
-15619.9
-15986
-16283.4
-16513.8
-16679.3
-16782.6
-16827.1
-16816.4
-16754.6
-16646.3
-16496.3
-16310
-16092.7
-15850.2
-15588.4
-15313.6
-15031.9
-14749.9
-14474.1
-14211.2
-13968.2
-13752.1
-13570.4
-13430.6
-13341
-13310.5
-13348.9
-13467.6
-13679.8
-14002
-14455.3
-15068.7
-15883.6