/*--------------------------------*- C++ -*----------------------------------*\
  =========                 |
  \\      /  F ield         | OpenFOAM: The Open Source CFD Toolbox
   \\    /   O peration     | Website:  https://openfoam.org
    \\  /    A nd           | Version:  9
     \\/     M anipulation  |
\*---------------------------------------------------------------------------*/
FoamFile
{
    format      ascii;
    class       volScalarField;
    location    "0.3";
    object      gradTy;
}
// * * * * * * * * * * * * * * * * * * * * * * * * * * * * * * * * * * * * * //

dimensions      [0 -1 0 1 0 0 0];

internalField   nonuniform List<scalar> 
200000
(
5080.17
10206.7
13379.5
15631.9
17377.2
18809.1
20031.1
21104.3
22067.4
22946.8
23761.1
24523.6
25244.6
25931.8
26590.9
27226.7
27842.7
28441.5
29025.2
29595.2
30152.4
30697.4
31230.5
31751.4
32259.8
32755.2
33236.7
33703.4
34154.3
34588
35003.3
35399
35773.6
36125.8
36454.2
36757.6
37034.6
37284
37504.8
37696
37856.6
37986.1
38083.7
38149.1
38182
38182.2
38150
38085.5
37989.1
37861.5
37703.3
37515.5
37299.3
37055.7
36786.1
36491.9
36174.8
35836.2
35478.1
35102
34709.8
34303.3
33884.3
33454.6
33015.9
32570
32118.5
31663
31204.8
30745.3
30285.8
29827.1
29370.2
28915.8
28464.3
28016.1
27571.2
27129.3
26690.1
26252.6
25816
25378.6
24938.6
24493.6
24040.9
23576.8
23096.9
22596
22067.3
21502.4
20890.6
20217.6
19464.5
18604.4
17597.9
16383.5
14857.4
12825.4
9873.91
4969.18
2354.61
5944.74
8603.33
10651
12301.2
13683
14876
15931.1
16882.5
17754
18562.7
19321.4
20039.7
20724.9
21382.7
22017.7
22633.2
23231.7
23815.4
24385.5
24943
25488.4
26021.9
26543.4
27052.4
27548.5
28030.6
28498
28949.5
29384
29800
30196.4
30571.6
30924.5
31253.5
31557.5
31835
32084.9
32306.2
32497.8
32658.8
32788.5
32886.4
32952
32985
32985.4
32953.1
32888.5
32792.1
32664.2
32505.9
32317.8
32101.2
31857.2
31587.1
31292.5
30974.8
30635.6
30276.8
29900.1
29507.2
29099.9
28680.2
28249.7
27810.3
27363.6
26911.4
26455
25996.1
25535.8
25075.5
24616.1
24158.5
23703.4
23251.4
22802.6
22357.2
21914.9
21475.3
21037.6
20600.9
20163.5
19723.8
19279.3
18827.3
18364.3
17886
17387.3
16861.6
16300.9
15694.8
15030.1
14289
13447.2
12470
11306.1
9875.4
8048.45
5611.47
2243.46
1431.76
3993.43
6138.03
7922.91
9430.58
10730
11872.5
12895.2
13824.9
14681.5
15479.7
16231
16944.1
17625.6
18280.9
18914.2
19528.7
20126.8
20710.4
21280.9
21838.9
22385.1
22919.6
23442.1
23952.3
24449.6
24933.1
25401.9
25854.8
26290.6
26708
27105.7
27482.3
27836.4
28166.7
28471.8
28750.4
29001.3
29223.5
29415.9
29577.7
29708
29806.4
29872.3
29905.6
29906.1
29873.9
29809.2
29712.5
29584.3
29425.5
29236.9
29019.6
28774.7
28503.8
28208.1
27889.3
27549.1
27189
26810.9
26416.6
26008
25586.7
25154.7
24713.8
24265.6
23811.7
23353.8
22893.3
22431.5
21969.7
21508.9
21049.9
20593.5
20140.2
19690.4
19243.9
18800.8
18360.6
17922.5
17485.5
17048.3
16609
16165.4
15714.9
15254
14778.8
14284.3
13764.3
13211.5
12616.5
11967.3
11248.5
10439.8
9513.68
8432.7
7145.15
5581.62
3659.24
1320.31
1025.09
2972.59
4722.93
6265.13
7622.63
8826.9
9907.27
10888.2
11789.1
12625.5
13409.5
14150.5
14856.2
15532.5
16184.3
16815.3
17428.4
18025.9
18609.5
19180.3
19739.2
20286.6
20822.4
21346.6
21858.6
22357.7
22843.2
23313.9
23768.8
24206.7
24626.2
25025.9
25404.5
25760.5
26092.6
26399.4
26679.6
26932
27155.5
27349.1
27512
27643.2
27742.3
27808.8
27842.5
27843.2
27811
27746.2
27649.2
27520.5
27361
27171.5
26953.2
26707.2
26434.9
26137.8
25817.3
25475.3
25113.4
24733.4
24337
23926.3
23502.8
23068.6
22625.4
22174.8
21718.7
21258.4
20795.6
20331.6
19867.6
19404.6
18943.6
18485.3
18030.2
17578.7
17130.8
16686.5
16245.3
15806.5
15369.2
14932.1
14493.4
14051.2
13602.7
13144.9
12674
12185.4
11673.6
11132
10552.1
9923.94
9234.76
8468.65
7605.59
6620.69
5484.2
4164.25
2637.04
913.18
805.225
2372.01
3837.22
5179.12
6398.99
7508.75
8523.61
9458.5
10326.7
11139.6
11906.4
12635.1
13331.9
14001.9
14649.3
15277.4
15888.8
16485.6
17069.2
17640.7
18200.8
18749.6
19287.3
19813.6
20327.8
20829.4
21317.4
21790.8
22248.4
22689
23111.1
23513.5
23894.6
24253.1
24587.5
24896.6
25178.9
25433.3
25658.6
25853.8
26018
26150.4
26250.5
26317.7
26351.9
26352.9
26320.8
26255.8
26158.3
26029
25868.5
25678
25458.3
25210.8
24936.8
24637.7
24315.2
23970.9
23606.6
23224
22825
22411.4
21985.2
21548
21101.8
20648.2
20189
19725.8
19260
18793
18326.1
17860.4
17396.7
16935.9
16478.4
16024.8
15575
15129
14686.5
14246.8
13809.1
13372.1
12934.2
12493.5
12047.6
11593.7
11128.1
10646.9
10145.1
9616.85
9055.16
8451.65
7796.35
7077.39
6280.99
5391.76
4394.06
3275.59
2034.69
692.727
669.018
1984.93
3243.86
4426.89
5528.49
6551.51
7502.98
8391.45
9225.56
10013.3
10761.6
11476.6
12163.4
12826.3
13468.7
14093.7
14703.3
15299.3
15883
16455.4
17016.8
17567.5
18107.5
18636.3
19153.4
19657.9
20149.1
20625.6
21086.5
21530.3
21955.7
22361.2
22745.5
23107
23444.3
23756.1
24041
24297.7
24525.2
24722.3
24888.2
25022.1
25123.4
25191.6
25226.4
25227.7
25195.6
25130.4
25032.4
24902.3
24740.8
24548.9
24327.6
24078.2
23802.1
23500.7
23175.7
22828.6
22461.4
22075.7
21673.5
21256.5
20826.8
20386.1
19936.2
19479
19016.1
18549.2
18079.8
17609.2
17138.8
16669.7
16202.7
15738.8
15278.5
14822.2
14370.1
13922.2
13478.1
13037.3
12599
12162
11725
11286.1
10843.2
10393.5
9934.13
9461.27
8970.69
8457.4
7915.59
7338.58
6718.74
6047.57
5315.96
4514.88
3636.86
2678.67
1645.48
555.808
576.946
1718.19
2825.07
3883.35
4886.34
5833.09
6726.28
7570.49
8371.08
9133.46
9862.75
10563.6
11239.9
11895.2
12532.5
13154
13761.7
14357
14941
15514.4
16077.5
16630.4
17173
17704.8
18225.1
18733.2
19227.9
19708.2
20172.9
20620.5
21049.6
21458.9
21846.7
22211.8
22552.5
22867.4
23155.3
23414.8
23644.8
23844.2
24012
24147.6
24250.2
24319.5
24355.1
24356.8
24324.8
24259.3
24160.8
24029.8
23867
23673.6
23450.4
23198.9
22920.4
22616.3
22288.3
21938
21567.4
21178.1
20772.1
20351.3
19917.5
19472.7
19018.6
18557.1
18090
17618.8
17145.2
16670.5
16196
15722.9
15252.2
14784.7
14321.1
13861.8
13406.9
12956.6
12510.7
12068.5
11629.5
11192.6
10756.4
10319.5
9879.69
9434.77
8981.96
8518.05
8039.39
7541.8
7020.54
6470.39
5885.64
5260.32
4588.59
3865.38
3087.6
2255.8
1376.28
462.918
511.028
1525.25
2517.54
3477.59
4399.4
5280.69
6121.98
6925.49
7694.43
8432.39
9142.98
9829.64
10495.5
11143.2
11775.1
12393.2
12999
13593.7
14178.1
14752.7
15317.8
15873.2
16418.8
16953.9
17477.9
17989.8
18488.6
18973.1
19442
19893.8
20327.2
20740.7
21132.6
21501.5
21846
22164.5
22455.8
22718.4
22951.2
23153.1
23323.2
23460.7
23564.9
23635.4
23671.8
23674
23642.1
23576.4
23477.2
23345.2
23181.1
22985.9
22760.7
22506.8
22225.5
21918.4
21587.1
21233.4
20858.9
20465.6
20055.4
19630.2
19191.9
18742.5
18283.7
17817.5
17345.6
16869.6
16391.3
15911.9
15432.9
14955.4
14480.5
14009
13541.6
13078.8
12621
12168
11719.9
11276.2
10836.3
10399.3
9964.02
9529.01
9092.52
8652.48
8206.49
7751.79
7285.27
6803.47
6302.59
5778.57
5227.21
4644.34
4026.29
3370.32
2675.53
1943.75
1180.62
396.095
461.925
1380.65
2284.79
3166.92
4022.14
4847.97
5643.93
6410.94
7150.83
7865.93
8558.74
9231.77
9887.36
10527.6
11154.4
11769.1
12373.2
12967.3
13552.3
14128.4
14695.6
15253.8
15802.7
16341.5
16869.4
17385.6
17888.8
18377.8
18851.3
19307.8
19745.8
20163.8
20560.1
20933.4
21282
21604.4
21899.3
22165.3
22401.2
22605.9
22778.5
22918
23024
23095.8
23133.1
23135.9
23104.2
23038.2
22938.3
22805.2
22639.7
22442.6
22215.2
21958.7
21674.5
21364.1
21029.3
20671.6
20293.1
19895.4
19480.7
19050.7
18607.5
18153.1
17689.2
17217.8
16740.7
16259.6
15776
15291.6
14807.6
14325.3
13845.8
13370
12898.5
12432
11970.8
11515
11064.5
10619.1
10178.2
9740.95
9306.44
8873.36
8440.15
8005
7565.82
7120.27
6665.72
6199.32
5718.03
5218.72
4698.26
4153.79
3582.95
2984.36
2358.07
1706.15
1033.11
346.02
424.283
1269.38
2104.48
2924.23
3724.81
4503.96
5260.82
5995.63
6709.38
7403.54
8079.83
8740.06
9385.94
10019.1
10640.9
11252.6
11855
12448.8
13034.5
13612.1
14181.7
14743
15295.3
15838
16370.2
16890.9
17398.8
17892.6
18371
18832.4
19275.3
19698.1
20099.2
20477
20830
21156.6
21455.4
21725
21964.2
22171.9
22347.1
22488.9
22596.7
22670
22708.4
22711.8
22680.2
22613.9
22513.4
22379.2
22212.1
22013.1
21783.4
21524.1
21236.8
20923
20584.3
20222.6
19839.7
19437.5
19017.9
18582.9
18134.5
17674.7
17205.4
16728.6
16246
15759.3
15270.3
14780.5
14291.3
13803.9
13319.5
12839
12363.3
11892.8
11428
10969.1
10516.1
10068.8
9626.66
9189.15
8755.32
8324.07
7894.05
7463.67
7031.14
6594.45
6151.41
5699.67
5236.79
4760.32
4267.95
3757.64
3227.88
2677.96
2108.32
1520.79
918.806
307.368
394.8
1181.99
1962.21
2731.58
3487.17
4227.12
4950.5
5657.21
6347.76
7023.05
7684.27
8332.68
8969.56
9596.07
10213.3
10822
11423
12016.7
12603.2
13182.6
13754.7
14319
14874.9
15421.7
15958.3
16483.7
16996.4
17495.3
17978.8
18445.3
18893.3
19321.1
19727.2
20109.7
20467.3
20798.2
21101.1
21374.5
21617.2
21828.1
22006
22150.2
22259.9
22334.7
22374.2
22378.3
22346.9
22280.5
22179.2
22043.9
21875.3
21674.3
21442.1
21180.1
20889.6
20572.2
20229.7
19863.7
19476.3
19069.3
18644.7
18204.5
17750.7
17285.4
16810.5
16328
15839.6
15347.3
14852.7
14357.3
13862.6
13369.9
12880.4
12395.1
11914.9
11440.2
10971.7
10509.6
10054
9604.62
9161.27
8723.34
8290.1
7860.56
7433.56
7007.75
6581.56
6153.3
5721.11
5283.06
4837.17
4381.51
3914.31
3434.09
2939.82
2431.14
1908.51
1373.4
828.348
276.86
371.31
1112.24
1848.26
2576.57
3294.97
4001.99
4696.79
5379.14
6049.27
6707.76
7355.38
7993.04
8621.64
9242.04
9855
10461.1
11060.8
11654.4
12241.9
12823.1
13397.7
13965.2
14524.8
15075.7
15616.8
16146.8
16664.6
17168.5
17657.2
18128.9
18582.1
19015.1
19426.1
19813.5
20175.8
20511.2
20818.2
21095.5
21341.8
21555.9
21736.6
21883.3
21995.1
22071.5
22112.1
22116.9
22085.9
22019.2
21917.3
21780.9
21610.7
21407.7
21173.1
20908.3
20614.6
20293.6
19947.1
19577
19185
18773.1
18343.5
17898
17438.8
16967.9
16487.3
15999
15504.8
15006.7
14506.3
14005.2
13505
13007
12512.4
12022.2
11537.3
11058.5
10586.2
10120.8
9662.44
9211.03
8766.35
8327.94
7895.17
7467.21
7043.06
6621.54
6201.32
5780.94
5358.84
4933.39
4502.99
4066.07
3621.23
3167.33
2703.63
2229.87
1746.43
1254.4
755.566
252.359
352.326
1055.79
1755.8
2450.35
3137.83
3817.12
4487.53
5148.81
5801.07
6444.66
7080.11
7708.05
8329.11
8943.91
9552.96
10156.7
10755.2
11348.8
11937.2
12520.2
13097.4
13668
14231.2
14786.2
15331.7
15866.4
16389.1
16898.1
17391.9
17868.8
18327.2
18765.2
19181.3
19573.6
19940.5
20280.3
20591.6
20872.8
21122.7
21340
21523.7
21672.8
21786.7
21864.7
21906.6
21912.2
21881.4
21814.6
21712.2
21574.7
21403
21198.1
20961.2
20693.5
20396.7
20072.2
19721.9
19347.5
18951
18534.4
18099.7
17649
17184.4
16707.9
16221.7
15727.6
15227.7
14723.8
14217.7
13711
13205.3
12702
12202.2
11707.2
11217.8
10734.8
10258.8
9790.13
9329.05
8875.58
8429.56
7990.62
7558.25
7131.75
6710.26
6292.75
5878.08
5465
5052.18
4638.24
4221.82
3801.64
3376.54
2945.59
2508.17
2064.05
1613.46
1157.11
696.216
232.407
336.78
1009.52
1679.86
2346.39
3007.98
3663.8
4313.34
4956.39
5593
6223.4
6847.97
7467.13
8081.32
8690.97
9296.4
9897.83
10495.3
11088.9
11678.2
12262.9
12842.4
13416
13982.8
14541.6
15091.3
15630.6
16158
16671.9
17170.6
17652.6
18116
18559.1
18980
19377.1
19748.5
20092.8
20408.2
20693.3
20946.7
21167.2
21353.7
21505.4
21621.3
21701.1
21744.2
21750.6
21720.2
21653.4
21550.4
21412
21238.9
21032.2
20793
20522.8
20222.9
19895
19541
19162.5
18761.7
18340.4
17900.9
17445.2
16975.3
16493.5
16001.8
15502.2
14996.7
14487.2
13975.6
13463.4
12952.4
12443.9
11939.2
11439.5
10945.7
10458.7
9979.04
9507.25
9043.58
8588.13
8140.81
7701.37
7269.38
6844.25
6425.23
6011.46
5601.95
5195.59
4791.25
4387.74
3983.89
3578.6
3170.87
2759.89
2345.1
1926.2
1503.27
1076.71
647.271
215.971
323.884
971.099
1616.7
2259.74
2899.45
3535.26
4166.82
4794.01
5416.86
6035.55
6650.33
7261.51
7869.4
8474.26
9076.26
9675.49
10271.9
10865.3
11455.4
12041.5
12623.2
13199.5
13769.4
14331.9
14885.5
15429
15960.8
16479.3
16982.8
17469.5
17937.7
18385.5
18811.1
19212.7
19588.6
19937
20256.4
20545.2
20802.1
21025.7
21215
21369.1
21487.1
21568.5
21613
21620.2
21590.3
21523.5
21420.1
21280.9
21106.6
20898.2
20657
20384.3
20081.6
19750.6
19393.1
19010.8
18605.9
18180.4
17736.3
17275.8
16801
16314.1
15817.2
15312.4
14801.7
14286.9
13770.1
13252.8
12736.7
12223.4
11714
11209.9
10712
10221.2
9738.19
9263.49
8797.42
8340.15
7891.67
7451.81
7020.23
6596.42
6179.77
5769.51
5364.77
4964.61
4568.01
4173.94
3781.35
3389.28
2996.82
2603.24
2207.96
1810.63
1411.14
1009.64
606.499
202.29
313.03
938.742
1563.44
2186.52
2807.51
3426.08
4042.02
4655.28
5265.91
5874.08
6479.97
7083.81
7685.8
8286.09
8884.75
9481.74
10076.9
10670
11260.4
11847.8
12431.2
13009.8
13582.5
14148.1
14705.3
15252.6
15788.4
16311.1
16818.8
17309.9
17782.5
18234.6
18664.5
19070.4
19450.3
19802.7
20125.8
20418.1
20678.2
20904.8
21096.8
21253.2
21373.2
21456.3
21502
21510.1
21480.8
21414
21310.4
21170.5
20995.2
20785.4
20542.4
20267.6
19962.4
19628.6
19267.9
18882.3
18473.7
18044.2
17596
17131.2
16651.9
16160.4
15658.8
15149.2
14633.7
14114.1
13592.5
13070.5
12549.9
12032.1
11518.5
11010.4
10508.8
10014.6
9528.59
9051.3
8583.13
8124.31
7674.9
7234.78
6803.7
6381.26
5966.91
5559.99
5159.73
4765.3
4375.78
3990.26
3607.79
3227.48
2848.49
2470.11
2091.73
1712.92
1333.43
953.162
572.212
190.793
303.743
911.039
1517.78
2123.64
2728.39
3331.87
3934.02
4534.86
5134.5
5733.06
6330.74
6927.68
7524.01
8119.81
8715.06
9309.63
9903.28
10495.6
11086.1
11674.2
12258.8
12839.2
13414.1
13982.4
14542.5
15093
15632.2
16158.5
16670
17164.9
17641.3
18097.3
18531.1
18940.7
19324.3
19680.2
20006.7
20302.2
20565.3
20794.6
20989.1
21147.7
21269.6
21354.3
21401.2
21410.3
21381.5
21315.1
21211.3
21071
20894.9
20684
20439.5
20162.9
19855.7
19519.5
19156.1
18767.5
18355.8
17922.9
17471.1
17002.5
16519.4
16023.8
15518.1
15004.3
14484.6
13960.9
13435.1
12909
12384.4
11862.7
11345.5
10833.9
10329.1
9832.06
9343.5
8864.07
8394.21
7934.2
7484.16
7044.05
6613.67
6192.7
5780.67
5376.99
4981
4591.93
4208.96
3831.23
3457.9
3088.1
2721.05
2356.01
1992.36
1629.57
1267.26
905.153
543.099
181.036
295.64
886.851
1477.87
2068.59
2658.97
3249
3838.74
4428.3
5017.81
5607.43
6197.31
6787.59
7378.34
7969.57
8561.19
9153.02
9744.73
10335.9
10925.9
11514
12099.3
12680.7
13257.2
13827.3
14389.6
14942.6
15484.6
16013.7
16528.3
17026.3
17506
17965.2
18402.2
18815
19201.8
19560.8
19890.2
20188.5
20454.2
20686
20882.7
21043.3
21167
21253.1
21301.4
21311.4
21283.3
21217.2
21113.6
20973
20796.4
20584.7
20339.2
20061.3
19752.4
19414.3
19048.8
18657.9
18243.6
17808
17353.3
16881.6
16395.3
15896.5
15387.4
14870.2
14347
13819.8
13290.6
12761.2
12233.4
11708.6
11188.4
10674
10166.7
9667.38
9176.88
8695.87
8224.83
7764.11
7313.87
6874.12
6444.73
6025.44
5615.83
5215.41
4823.56
4439.58
4062.73
3692.21
3327.2
2966.89
2610.49
2257.28
1906.56
1557.76
1210.35
863.918
518.118
172.668
288.405
865.242
1442.17
2019.26
2596.63
3174.39
3752.71
4331.76
4911.72
5492.77
6075.06
6658.7
7243.74
7830.14
8417.77
9006.37
9595.59
10184.9
10773.7
11361.1
11946.2
12528
13105.1
13676.3
14240
14794.6
15338.4
15869.6
16386.3
16886.7
17368.8
17830.5
18270.1
18685.4
19074.7
19436.1
19767.9
20068.5
20336.4
20570.3
20768.9
20931.3
21056.6
21144.1
21193.6
21204.6
21177.2
21111.7
21008.4
20867.9
20691.1
20479.1
20232.9
19954.1
19644.2
19304.9
18938
18545.4
18129.3
17691.7
17234.9
16761
16272.3
15771.1
15259.5
14739.8
14214.1
13684.4
13152.6
12620.8
12090.5
11563.5
11041.2
10524.9
10015.8
9514.97
9023.26
8541.35
8069.79
7608.93
7159.01
6720.09
6292.08
5874.76
5467.8
5070.74
4683.02
4304
3932.97
3569.2
3211.88
2860.24
2513.48
2170.85
1831.63
1495.16
1160.83
828.084
496.428
165.406
281.774
845.426
1409.39
1973.9
2539.17
3105.44
3672.95
4241.94
4812.64
5385.24
5959.9
6536.73
7115.74
7696.88
8279.96
8864.72
9450.72
10037.4
10624.1
11210
11794
12375.1
12951.9
13523.1
14087.1
14642.3
15187
15719.3
16237.3
16739
17222.6
17686
18127.2
18544.3
18935.3
19298.5
19632.1
19934.5
20204.1
20439.6
20639.8
20803.6
20930.3
21019.1
21069.6
21081.7
21055.2
20990.3
20887.5
20747.5
20570.9
20358.9
20112.7
19833.7
19523.4
19183.5
18815.9
18422.5
18005.4
17566.8
17108.8
16633.6
16143.6
15640.9
15127.9
14606.7
14079.4
13548.2
13015
12481.7
11950.1
11421.8
10898.3
10381.1
9871.18
9369.75
8877.67
8395.67
7924.33
7464.05
7015.09
6577.56
6151.42
5736.5
5332.5
4939.01
4555.52
4181.44
3816.09
3458.75
3108.68
2765.07
2427.15
2094.15
1765.29
1439.85
1117.15
796.516
477.337
159.017
275.523
826.736
1378.45
1930.99
2484.7
3039.89
3596.88
4155.97
4717.41
5281.44
5848.22
6417.85
6990.34
7565.6
8143.44
8723.54
9305.46
9888.6
10472.2
11055.5
11637.3
12216.6
12792
13362.1
13925.3
14480
15024.4
15556.6
16074.7
16576.8
17060.8
17524.8
17966.8
18384.7
18776.7
19140.9
19475.5
19779
20049.7
20286.3
20487.7
20652.6
20780.4
20870.3
20921.9
20934.9
20909.4
20845.4
20743.4
20604.1
20428.2
20216.8
19971.1
19692.5
19382.5
19042.8
18675.4
18282.1
17865
17426.3
16968.2
16492.8
16002.6
15499.7
14986.3
14464.8
13937.2
13405.6
12872.1
12338.6
11806.8
11278.4
10754.9
10237.7
9728.05
9227.03
8735.56
8254.4
7784.15
7325.25
6878
6442.55
6018.88
5606.87
5206.26
4816.68
4437.65
4068.6
3708.91
3357.87
3014.74
2678.75
2349.09
2024.97
1705.6
1390.2
1078
768.264
460.267
153.308
269.463
808.603
1348.39
1889.24
2431.58
2975.79
3522.26
4071.32
4623.29
5178.39
5736.82
6298.67
6863.95
7432.56
8004.28
8578.78
9155.59
9734.09
10313.5
10893
11471.4
12047.7
12620.4
13188.1
13749.2
14302
14844.9
15375.7
15892.8
16394
16877.3
17340.8
17782.4
18200.2
18592.1
18956.4
19291.3
19595.1
19866.3
20103.5
20305.5
20471.2
20599.8
20690.6
20743.2
20757.2
20732.7
20669.8
20568.9
20430.7
20256
20045.7
19801.1
19523.6
19214.8
18876.2
18509.9
18117.7
17701.7
17264.1
16806.9
16332.6
15843.4
15341.4
14829.1
14308.5
13781.9
13251.3
12718.9
12186.4
11655.6
11128.4
10606.1
10090.2
9582.01
9082.54
8592.77
8113.49
7645.32
7188.74
6744.06
6311.47
5890.99
5482.52
5085.83
4700.59
4326.36
3962.58
3608.66
3263.91
2927.6
2598.96
2277.18
1961.44
1650.93
1344.82
1042.29
742.527
444.731
148.113
263.427
790.535
1318.4
1847.53
2378.39
2911.45
3447.13
3985.81
4527.83
5073.44
5622.86
6176.16
6733.38
7294.38
7858.97
8426.77
8997.29
9569.92
10143.9
10718.2
11291.9
11863.7
12432.3
12996.2
13553.8
14103.4
14643.3
15171.5
15686.1
16185.1
16666.4
17128.2
17568.3
17984.7
18375.6
18739.1
19073.3
19376.7
19647.6
19884.8
20086.9
20252.9
20382
20473.5
20526.8
20541.8
20518.4
20456.8
20357.4
20220.7
20047.6
19839.1
19596.3
19320.8
19013.9
18677.5
18313.3
17923.3
17509.5
17074.1
16619.3
16147.3
15660.4
15160.9
14650.9
14132.7
13608.5
13080.4
12550.4
12020.4
11492.2
10967.4
10447.7
9934.52
9429.03
8932.37
8445.51
7969.26
7504.27
7051.04
6609.9
6181.06
5764.58
5360.39
4968.27
4587.93
4218.94
3860.79
3512.88
3174.55
2845.08
2523.7
2209.59
1901.92
1599.86
1302.53
1009.07
718.619
430.314
143.295
257.274
772.106
1287.79
1804.88
2323.91
2845.39
3369.78
3897.49
4428.89
4964.26
5503.81
6047.65
6595.77
7148.08
7704.35
8264.2
8827.14
9392.54
9959.59
10527.4
11094.8
11660.7
12223.6
12782.2
13334.8
13879.6
14415
14939
15449.7
15945
16423
16881.7
17319
17733
18121.6
18483.2
18815.8
19117.8
19387.7
19624.1
19825.8
19991.7
20120.9
20212.8
20266.8
20282.8
20260.6
20200.5
20102.8
19968
19797.1
19591
19350.9
19078.1
18774.2
18440.8
18079.9
17693.2
17283
16851.2
16400.1
15931.8
15448.7
14953
14447
13932.8
13412.5
12888.4
12362.4
11836.4
11312.2
10791.5
10275.9
9766.81
9265.44
8772.96
8290.33
7818.38
7357.77
6909.02
6472.49
6048.41
5636.84
5237.75
4850.96
4476.17
4112.99
3760.93
3419.4
3087.75
2765.28
2451.21
2144.73
1845
1551.15
1262.29
977.527
695.953
416.66
138.734
250.881
752.952
1255.94
1760.46
2267.07
2776.32
3288.71
3804.68
4324.61
4848.81
5377.48
5910.75
6448.62
6990.99
7537.63
8088.16
8642.09
9198.77
9757.4
10317
10876.6
11434.9
11990.6
12542.2
13088.1
13626.5
14155.8
14673.9
15179.1
15669.3
16142.5
16596.6
17029.8
17440
17825.2
18183.7
18513.6
18813.4
19081.4
19316.3
19516.9
19682.1
19811.1
19903.1
19957.7
19974.6
19953.7
19895.3
19799.7
19667.3
19499.2
19296.1
19059.4
18790.3
18490.3
18161.2
17804.7
17422.7
17017.2
16590.4
16144.4
15681.5
15203.7
14713.5
14213
13704.3
13189.8
12671.3
12150.9
11630.6
11112.1
10597.1
10087.2
9583.68
9087.96
8601.11
8124.13
7657.84
7202.91
6759.88
6329.12
5910.87
5505.24
5112.18
4731.55
4363.07
4006.37
3660.96
3326.29
3001.71
2686.53
2379.97
2081.22
1789.44
1503.74
1223.22
946.963
674.023
403.461
134.328
244.143
732.756
1222.34
1713.54
2206.95
2703.15
3202.65
3705.92
4213.37
4725.3
5241.94
5763.41
6289.73
6820.8
7356.38
7896.1
8439.46
8985.82
9534.39
10084.2
10634.3
11183.3
11729.9
12272.8
12810.2
13340.5
13861.9
14372.5
14870.6
15353.9
15820.7
16268.8
16696.4
17101.4
17481.9
17836.1
18162.3
18458.7
18724
18956.7
19155.5
19319.5
19447.8
19539.6
19594.6
19612.4
19593
19536.4
19443.2
19313.8
19149
18949.7
18717.2
18452.7
18157.7
17833.9
17483.1
17107
16707.8
16287.5
15848.2
15392.1
14921.4
14438.3
13945
13443.7
12936.5
12425.4
11912.5
11399.6
10888.5
10380.9
9878.27
9382.1
8893.62
8413.97
7944.14
7484.95
7037.09
6601.09
6177.36
5766.13
5367.52
4981.52
4607.98
4246.66
3897.18
3559.1
3231.87
2914.85
2607.35
2308.62
2017.85
1734.17
1456.72
1184.56
916.773
652.393
390.456
129.989
236.972
711.254
1186.55
1663.51
2142.77
2624.92
3110.49
3599.98
4093.78
4592.22
5095.54
5603.87
6117.22
6635.51
7158.48
7685.8
8216.95
8751.3
9288.06
9826.32
10365
10902.9
11438.7
11970.9
12498
13018.4
13530.1
14031.5
14520.6
14995.5
15454.2
15894.7
16315.1
16713.5
17088
17436.7
17757.9
18050
18311.5
18541.1
18737.5
18899.7
19026.9
19118.2
19173.4
19192
19174.1
19119.7
19029.2
18903.2
18742.4
18547.7
18320.2
18061.3
17772.4
17455.2
17111.3
16742.6
16351
15938.7
15507.7
15060.1
14598.1
14123.9
13639.7
13147.5
12649.5
12147.7
11644
11140.4
10638.5
10140
9646.54
9159.39
8679.85
8209.03
7747.93
7297.37
6858.04
6430.48
6015.09
5612.12
5221.71
4843.85
4478.43
4125.19
3783.79
3453.8
3134.67
2825.8
2526.5
2236.02
1953.56
1678.28
1409.28
1145.65
886.438
630.687
377.417
125.64
229.292
688.223
1148.19
1609.86
2073.88
2540.85
3011.33
3485.8
3964.68
4448.3
4936.91
5430.64
5929.51
6433.44
6942.19
7455.42
7972.63
8493.19
9016.34
9541.16
10066.6
10591.5
11114.5
11634.3
12149.2
12657.6
13157.9
13648.1
14126.5
14591.1
15040
15471.3
15883
16273.3
16640.2
16982.1
17297.1
17583.8
17840.7
18066.3
18259.5
18419.3
18544.8
18635.4
18690.5
18710
18693.6
18641.6
18554.2
18432.1
18275.9
18086.4
17865
17612.7
17331
17021.5
16685.9
16326
15943.6
15540.9
15119.8
14682.5
14231
13767.5
13294.1
12813
12326.1
11835.4
11342.9
10850.4
10359.6
9872.19
9389.62
8913.28
8444.42
7984.14
7533.42
7093.08
6663.8
6246.13
5840.47
5447.09
5066.12
4697.57
4341.33
3997.17
3664.77
3343.69
3033.43
2733.38
2442.87
2161.17
1887.48
1620.97
1360.75
1105.91
855.513
608.586
364.152
121.217
221.044
663.483
1106.97
1552.18
1999.76
2450.32
2904.42
3362.55
3825.14
4292.51
4764.93
5242.52
5725.32
6213.24
6706.07
7203.45
7704.92
8209.86
8717.52
9227
9737.29
10247.2
10755.5
11260.8
11761.5
12256.1
12742.9
13220.1
13685.9
14138.4
14575.8
14996.1
15397.5
15778.1
16136.2
16469.8
16777.5
17057.6
17308.7
17529.5
17718.8
17875.5
17998.9
18088.3
18143.3
18163.4
18148.7
18099.3
18015.5
17897.7
17746.7
17563.4
17348.8
17104.1
16830.8
16530.3
16204.3
15854.6
15483
15091.5
14682.1
14256.7
13817.5
13366.6
12906
12437.8
11963.9
11486.4
11007
10527.6
10049.8
9575.32
9105.56
8641.87
8185.49
7737.5
7298.85
6870.37
6452.72
6046.46
5651.97
5269.54
4899.3
4541.27
4195.35
3861.33
3538.9
3227.65
2927.07
2636.58
2355.54
2083.21
1818.83
1561.57
1310.55
1064.88
823.624
585.821
350.497
116.666
212.181
636.894
1062.65
1490.13
1919.98
2352.81
2789.17
3229.57
3674.42
4124.05
4578.73
5038.59
5503.66
5973.88
6449.02
6928.77
7412.66
7900.09
8390.33
8882.53
9375.68
9868.66
10360.2
10849
11333.6
11812.4
12283.8
12746
13197.3
13635.9
14059.9
14467.6
14857
15226.4
15574
15898.1
16197.1
16469.4
16713.8
16928.8
17113.3
17266.4
17387.2
17475.1
17529.6
17550.4
17537.4
17490.8
17410.8
17297.9
17152.8
16976.3
16769.5
16533.5
16269.7
15979.5
15664.6
15326.5
14967.3
14588.6
14192.5
13781
13355.9
12919.5
12473.6
12020.2
11561.4
11098.9
10634.6
10170.2
9707.48
9247.86
8792.81
8343.65
7901.58
7467.66
7042.82
6627.87
6223.48
5830.16
5448.33
5078.25
4720.07
4373.82
4039.41
3716.64
3405.21
3104.72
2814.71
2534.59
2263.74
2001.46
1746.99
1499.52
1258.21
1022.16
790.46
562.165
336.317
111.942
202.669
608.354
1015.07
1423.49
1834.26
2247.98
2665.19
3086.39
3512
3942.35
4377.7
4818.18
5263.84
5714.61
6170.3
6630.58
7095.01
7563.02
8033.91
8506.85
8980.86
9454.88
9927.7
10398
10864.4
11325.4
11779.3
12224.6
12659.5
13082.3
13491.2
13884.4
14260.2
14616.8
14952.5
15265.6
15554.6
15818.1
16054.6
16262.9
16441.9
16590.7
16708.4
16794.4
16848.2
16869.6
16858.4
16814.8
16739
16631.5
16492.9
16324.1
16125.9
15899.7
15646.5
15367.9
15065.3
14740.5
14395.1
14030.9
13649.9
13253.9
12844.9
12424.8
11995.5
11559
11117.1
10671.7
10224.5
9777.24
9331.44
8888.65
8450.24
8017.51
7591.6
7173.55
6764.28
6364.56
5975.04
5596.24
5228.56
4872.27
4527.52
4194.33
3872.64
3562.25
3262.88
2974.16
2695.62
2426.72
2166.86
1915.34
1671.45
1434.39
1203.33
977.426
755.767
537.439
321.503
107.007
192.486
577.797
964.12
1352.11
1742.41
2135.59
2532.2
2932.72
3337.56
3747.06
4161.46
4580.91
5005.46
5435.03
5869.45
6308.43
6751.53
7198.21
7647.8
8099.49
8552.38
9005.43
9457.47
9907.27
10353.5
10794.6
11229.1
11655.5
12072.1
12477.3
12869.2
13246.3
13606.7
13948.9
14271.2
14572
14849.8
15103.1
15330.8
15531.5
15704.1
15847.9
15961.9
16045.6
16098.5
16120.4
16111.1
16070.7
15999.5
15897.9
15766.4
15606
15417.5
15201.9
14960.5
14694.7
14406
14095.8
13765.8
13417.8
13053.6
12675
12283.8
11881.9
11471.2
11053.5
10630.6
10204.2
9776.11
9347.86
8921
8496.99
8077.15
7662.73
7254.83
6854.46
6462.51
6079.71
5706.71
5344.01
4991.99
4650.93
4320.97
4002.15
3694.41
3397.56
3111.34
2835.39
2569.28
2312.48
2064.42
1824.43
1591.81
1365.81
1145.63
930.429
719.35
511.5
305.968
101.834
181.621
545.193
909.748
1275.92
1644.33
2015.55
2390.09
2768.44
3150.98
3538.05
3929.89
4326.65
4728.37
5135.01
5546.38
5962.22
6382.12
6805.57
7231.93
7660.43
8090.22
8520.3
8949.57
9376.84
9800.83
10220.2
10633.4
11038.9
11435.3
11821
12194.2
12553.3
12896.8
13223
13530.4
13817.4
14082.7
14324.8
14542.5
14734.7
14900.2
15038.3
15148.2
15229.2
15281
15303.2
15295.8
15258.8
15192.5
15097.2
14973.6
14822.3
14644.2
14440.4
14212
13960.2
13686.6
13392.5
13079.5
12749.3
12403.6
12044.1
11672.5
11290.8
10900.5
10503.5
10101.5
9696.18
9289.11
8881.86
8475.89
8072.59
7673.22
7278.98
6890.93
6510.03
6137.13
5772.94
5418.09
5073.05
4738.2
4413.8
4100.01
3796.86
3504.29
3222.14
2950.17
2688.03
2435.31
2191.51
1956.08
1728.4
1507.79
1293.54
1084.87
880.989
681.065
484.243
289.65
96.4007
170.077
510.547
851.963
1194.94
1540.06
1887.88
2238.91
2593.59
2952.32
3315.4
3683.09
4055.52
4432.74
4814.72
5201.29
5592.2
5987.07
6385.42
6786.65
7190.05
7594.79
7999.95
8404.49
8807.29
9207.12
9602.68
9992.62
10375.5
10749.8
11114.1
11466.8
11806.4
12131.3
12440
12731
13003
13254.4
13484.1
13690.9
13873.6
14031.2
14163
14268.1
14346.1
14396.5
14419
14413.5
14380.1
14319
14230.6
14115.3
13973.9
13807.1
13616
13401.6
13165.2
12907.9
12631.3
12336.8
12026
11700.4
11361.7
11011.6
10651.8
10283.8
9909.47
9530.29
9147.89
8763.79
8379.47
7996.3
7615.59
7238.57
6866.34
6499.94
6140.26
5788.11
5444.2
5109.08
4783.25
4467.05
4160.73
3864.46
3578.26
3302.09
3035.8
2779.16
2531.85
2293.48
2063.59
1841.65
1627.07
1419.22
1217.41
1020.92
828.985
640.816
455.6
272.507
90.6934
157.865
473.896
790.828
1109.24
1429.7
1752.73
2078.82
2408.39
2741.81
3079.4
3421.37
3767.88
4118.98
4474.62
4834.68
5198.92
5566.99
5938.43
6312.7
6689.13
7066.96
7445.3
7823.21
8199.63
8573.41
8943.34
9308.15
9666.48
10017
10358.2
10688.7
11007
11311.7
11601.4
11874.7
12130.2
12366.7
12582.8
12777.6
12949.9
13098.9
13223.7
13323.6
13398.1
13446.9
13469.6
13466.1
13436.4
13380.8
13299.6
13193.3
13062.4
12907.8
12730.4
12531.1
12311
12071.5
11813.7
11539.2
11249.2
10945.4
10629.2
10302.2
9966.04
9622.21
9272.28
8917.77
8560.17
8200.91
7841.37
7482.85
7126.57
6773.69
6425.26
6082.24
5745.49
5415.76
5093.72
4779.91
4474.77
4178.66
3891.81
3614.37
3346.38
3087.8
2838.5
2598.27
2366.8
2143.73
1928.65
1721.04
1520.36
1326.01
1137.36
953.713
774.36
598.556
425.536
254.518
84.705
145.008
435.308
726.456
1019
1313.47
1610.37
1910.14
2213.2
2519.89
2830.52
3145.29
3464.34
3787.74
4115.46
4447.37
4783.27
5122.82
5465.64
5811.19
6158.87
6507.98
6857.71
7207.17
7555.38
7901.3
8243.8
8581.68
8913.71
9238.61
9555.06
9861.72
10157.2
10440.3
10709.5
10963.7
11201.5
11421.7
11623.3
11805.1
11966.2
12105.7
12222.9
12317.2
12387.9
12434.7
12457.5
12455.9
12430.2
12380.4
12306.8
12210
12090.4
11948.7
11785.8
11602.5
11400
11179.4
10941.8
10688.5
10420.9
10140.3
9848.19
9546
9235.18
8917.17
8593.42
8265.35
7934.32
7601.68
7268.7
6936.59
6606.51
6279.51
5956.58
5638.61
5326.42
5020.7
4722.07
4431.05
4148.06
3873.42
3607.37
3350.04
3101.47
2861.64
2630.43
2407.63
2192.99
1986.16
1786.74
1594.29
1408.29
1228.19
1053.39
883.248
717.11
554.281
394.047
235.679
78.4344
131.538
394.88
659.01
924.441
1191.66
1461.14
1733.3
2008.52
2287.14
2569.42
2855.57
3145.73
3439.95
3738.23
4040.45
4346.42
4655.86
4968.4
5283.58
5600.83
5919.52
6238.92
6558.22
6876.52
7192.86
7506.21
7815.49
8119.56
8417.25
8707.34
8988.62
9259.84
9519.77
9767.21
10000.9
10219.8
10422.7
10608.7
10776.6
10925.6
11055
11164
11252
11318.6
11363.3
11386
11386.4
11364.7
11321
11255.4
11168.5
11060.7
10932.7
10785.2
10619
10435
10234.4
10018.1
9787.44
9543.52
9287.64
9021.1
8745.22
8461.34
8170.78
7874.86
7574.88
7272.1
6967.76
6663.02
6359.01
6056.77
5757.29
5461.47
5170.14
4884.05
4603.85
4330.1
4063.3
3803.82
3551.97
3307.98
3071.96
2843.98
2624
2411.91
2207.55
2010.67
1820.96
1638.07
1461.57
1291
1125.85
965.577
809.593
657.289
508.03
361.159
216.006
71.8867
117.498
352.736
588.698
825.854
1064.66
1305.53
1548.87
1795.02
2044.29
2296.94
2553.16
2813.07
3076.75
3344.17
3615.26
3889.84
4167.67
4448.42
4731.68
5016.94
5303.64
5591.12
5878.65
6165.43
6450.6
6733.22
7012.32
7286.88
7555.83
7818.08
8072.53
8318.05
8553.53
8777.87
8989.97
9188.8
9373.34
9542.65
9695.83
9832.06
9950.62
10050.8
10132.2
10194.2
10236.6
10259
10261.5
10243.9
10206.4