/*--------------------------------*- C++ -*----------------------------------*\
  =========                 |
  \\      /  F ield         | OpenFOAM: The Open Source CFD Toolbox
   \\    /   O peration     | Website:  https://openfoam.org
    \\  /    A nd           | Version:  9
     \\/     M anipulation  |
\*---------------------------------------------------------------------------*/
FoamFile
{
    format      ascii;
    class       volScalarField;
    location    "0.3";
    object      T;
}
// * * * * * * * * * * * * * * * * * * * * * * * * * * * * * * * * * * * * * //

dimensions      [0 0 0 1 0 0 0];

internalField   nonuniform List<scalar> 
200000
(
300.358
300.658
300.829
300.945
301.034
301.106
301.167
301.221
301.27
301.314
301.354
301.393
301.429
301.463
301.496
301.528
301.559
301.589
301.618
301.646
301.674
301.701
301.728
301.754
301.779
301.804
301.828
301.852
301.874
301.896
301.917
301.936
301.955
301.973
301.989
302.004
302.018
302.031
302.042
302.051
302.059
302.066
302.071
302.074
302.075
302.075
302.074
302.071
302.066
302.059
302.051
302.042
302.031
302.019
302.006
301.991
301.975
301.958
301.94
301.921
301.902
301.882
301.861
301.839
301.817
301.795
301.772
301.75
301.727
301.704
301.681
301.658
301.635
301.612
301.59
301.567
301.545
301.523
301.501
301.479
301.457
301.435
301.413
301.391
301.369
301.345
301.321
301.296
301.27
301.242
301.211
301.177
301.139
301.096
301.045
300.984
300.906
300.801
300.642
300.352
300.658
301.383
301.847
302.182
302.442
302.656
302.839
303
303.144
303.276
303.398
303.512
303.62
303.723
303.822
303.918
304.01
304.1
304.187
304.273
304.356
304.438
304.518
304.596
304.673
304.747
304.819
304.889
304.957
305.022
305.084
305.143
305.2
305.252
305.302
305.347
305.389
305.426
305.459
305.488
305.512
305.532
305.546
305.556
305.561
305.561
305.556
305.546
305.532
305.513
305.489
305.461
305.429
305.392
305.352
305.307
305.26
305.209
305.155
305.099
305.04
304.979
304.916
304.852
304.786
304.719
304.651
304.583
304.514
304.445
304.376
304.308
304.239
304.171
304.103
304.036
303.969
303.903
303.837
303.771
303.706
303.64
303.574
303.508
303.44
303.37
303.298
303.223
303.144
303.059
302.967
302.866
302.754
302.625
302.474
302.293
302.065
301.764
301.333
300.642
300.829
301.847
302.549
303.075
303.494
303.842
304.143
304.407
304.646
304.864
305.067
305.257
305.437
305.608
305.773
305.931
306.085
306.235
306.381
306.523
306.663
306.799
306.932
307.063
307.19
307.314
307.434
307.551
307.664
307.773
307.877
307.976
308.069
308.158
308.24
308.316
308.385
308.448
308.503
308.551
308.591
308.623
308.648
308.664
308.672
308.673
308.664
308.648
308.624
308.592
308.553
308.506
308.452
308.391
308.323
308.249
308.17
308.085
307.996
307.902
307.803
307.702
307.597
307.489
307.379
307.268
307.155
307.041
306.926
306.811
306.696
306.581
306.467
306.353
306.24
306.128
306.017
305.906
305.796
305.687
305.578
305.468
305.358
305.247
305.134
305.018
304.899
304.774
304.642
304.502
304.35
304.183
303.997
303.785
303.539
303.245
302.881
302.411
301.764
300.801
300.945
302.182
303.075
303.766
304.328
304.802
305.213
305.579
305.909
306.212
306.494
306.758
307.009
307.248
307.478
307.7
307.916
308.125
308.329
308.529
308.724
308.915
309.102
309.285
309.463
309.637
309.806
309.969
310.128
310.28
310.426
310.565
310.696
310.82
310.935
311.042
311.139
311.227
311.304
311.371
311.428
311.473
311.507
311.531
311.542
311.542
311.531
311.508
311.475
311.43
311.374
311.308
311.232
311.147
311.052
310.949
310.838
310.719
310.593
310.461
310.323
310.181
310.034
309.883
309.729
309.572
309.414
309.254
309.093
308.932
308.77
308.609
308.449
308.29
308.131
307.974
307.818
307.663
307.509
307.356
307.203
307.05
306.896
306.741
306.583
306.421
306.254
306.08
305.897
305.701
305.491
305.26
305.003
304.713
304.377
303.979
303.494
302.881
302.065
300.906
301.034
302.442
303.494
304.328
305.018
305.608
306.124
306.585
307.004
307.39
307.749
308.087
308.408
308.715
309.009
309.294
309.571
309.84
310.103
310.359
310.611
310.856
311.097
311.332
311.562
311.785
312.003
312.214
312.418
312.614
312.802
312.981
313.15
313.31
313.458
313.596
313.721
313.834
313.934
314.021
314.093
314.152
314.196
314.226
314.241
314.241
314.227
314.198
314.154
314.096
314.025
313.94
313.842
313.732
313.61
313.477
313.334
313.18
313.018
312.848
312.671
312.487
312.297
312.103
311.904
311.703
311.498
311.292
311.085
310.877
310.669
310.462
310.255
310.05
309.846
309.644
309.443
309.243
309.045
308.848
308.651
308.455
308.257
308.057
307.855
307.647
307.433
307.211
306.977
306.728
306.46
306.168
305.844
305.479
305.06
304.569
303.978
303.243
302.292
300.983
301.106
302.656
303.842
304.802
305.608
306.304
306.918
307.47
307.974
308.44
308.875
309.285
309.675
310.049
310.408
310.756
311.093
311.422
311.743
312.057
312.364
312.665
312.959
313.247
313.529
313.803
314.069
314.328
314.577
314.818
315.048
315.267
315.475
315.67
315.853
316.021
316.175
316.313
316.436
316.542
316.631
316.703
316.758
316.794
316.812
316.813
316.795
316.759
316.706
316.636
316.548
316.444
316.324
316.189
316.04
315.877
315.701
315.513
315.314
315.106
314.888
314.663
314.431
314.192
313.949
313.702
313.451
313.199
312.945
312.69
312.436
312.181
311.928
311.677
311.427
311.179
310.933
310.689
310.446
310.205
309.965
309.724
309.483
309.239
308.992
308.74
308.479
308.209
307.926
307.625
307.302
306.95
306.563
306.128
305.633
305.058
304.373
303.536
302.472
301.044
301.167
302.839
304.143
305.213
306.124
306.918
307.625
308.263
308.849
309.392
309.901
310.382
310.841
311.28
311.703
312.113
312.512
312.9
313.279
313.65
314.014
314.37
314.718
315.059
315.392
315.717
316.033
316.339
316.635
316.92
317.193
317.453
317.699
317.931
318.147
318.347
318.529
318.693
318.839
318.965
319.071
319.156
319.221
319.264
319.286
319.287
319.266
319.224
319.161
319.077
318.973
318.85
318.708
318.548
318.37
318.177
317.969
317.746
317.511
317.263
317.005
316.738
316.463
316.18
315.892
315.598
315.302
315.002
314.701
314.399
314.097
313.796
313.496
313.198
312.902
312.608
312.317
312.028
311.741
311.455
311.171
310.887
310.602
310.315
310.023
309.726
309.42
309.103
308.771
308.42
308.043
307.636
307.188
306.689
306.124
305.472
304.705
303.779
302.621
301.095
301.221
303
304.407
305.579
306.585
307.47
308.263
308.984
309.648
310.267
310.848
311.398
311.923
312.428
312.915
313.387
313.846
314.294
314.731
315.16
315.58
315.991
316.394
316.788
317.174
317.549
317.915
318.269
318.612
318.942
319.258
319.559
319.844
320.113
320.363
320.594
320.806
320.996
321.165
321.311
321.434
321.533
321.608
321.658
321.683
321.684
321.66
321.611
321.538
321.442
321.321
321.179
321.014
320.829
320.624
320.4
320.158
319.901
319.628
319.342
319.043
318.733
318.414
318.087
317.753
317.413
317.069
316.723
316.374
316.024
315.675
315.326
314.979
314.634
314.291
313.951
313.614
313.28
312.949
312.619
312.291
311.963
311.634
311.303
310.968
310.626
310.276
309.913
309.533
309.133
308.706
308.244
307.74
307.18
306.551
305.831
304.991
303.987
302.747
301.137
301.27
303.144
304.646
305.909
307.004
307.974
308.849
309.648
310.388
311.079
311.73
312.348
312.94
313.508
314.058
314.592
315.111
315.619
316.115
316.601
317.077
317.545
318.002
318.45
318.888
319.315
319.731
320.134
320.524
320.899
321.258
321.601
321.926
322.231
322.516
322.78
323.02
323.237
323.429
323.596
323.736
323.849
323.934
323.991
324.021
324.021
323.994
323.939
323.856
323.746
323.609
323.447
323.26
323.049
322.816
322.561
322.286
321.993
321.682
321.356
321.017
320.664
320.301
319.929
319.548
319.162
318.771
318.376
317.979
317.581
317.184
316.787
316.392
316
315.61
315.224
314.841
314.461
314.085
313.711
313.338
312.967
312.595
312.22
311.842
311.456
311.061
310.653
310.228
309.78
309.304
308.791
308.233
307.618
306.929
306.146
305.24
304.168
302.857
301.174
301.314
303.276
304.864
306.212
307.39
308.44
309.392
310.267
311.079
311.84
312.559
313.244
313.901
314.533
315.146
315.74
316.32
316.887
317.442
317.986
318.519
319.042
319.555
320.057
320.547
321.026
321.493
321.945
322.382
322.803
323.207
323.592
323.956
324.299
324.619
324.915
325.186
325.429
325.645
325.832
325.989
326.116
326.212
326.277
326.31
326.311
326.281
326.219
326.126
326.003
325.849
325.667
325.457
325.221
324.959
324.673
324.364
324.035
323.687
323.321
322.939
322.543
322.136
321.717
321.291
320.857
320.418
319.975
319.529
319.083
318.636
318.191
317.748
317.308
316.871
316.438
316.008
315.583
315.161
314.743
314.326
313.911
313.495
313.078
312.656
312.227
311.789
311.337
310.867
310.373
309.849
309.288
308.679
308.011
307.268
306.428
305.462
304.328
302.954
301.206
301.354
303.398
305.067
306.494
307.749
308.875
309.901
310.848
311.73
312.559
313.346
314.096
314.817
315.512
316.186
316.842
317.482
318.108
318.722
319.323
319.914
320.493
321.061
321.618
322.162
322.693
323.21
323.712
324.198
324.665
325.113
325.541
325.946
326.327
326.682
327.011
327.311
327.582
327.822
328.03
328.205
328.346
328.453
328.525
328.562
328.564
328.53
328.462
328.359
328.222
328.052
327.85
327.617
327.354
327.063
326.745
326.403
326.037
325.65
325.244
324.82
324.381
323.928
323.463
322.989
322.508
322.02
321.528
321.033
320.538
320.042
319.548
319.056
318.567
318.083
317.602
317.127
316.655
316.188
315.724
315.264
314.805
314.346
313.885
313.421
312.949
312.468
311.972
311.458
310.92
310.351
309.743
309.087
308.369
307.574
306.682
305.662
304.472
303.04
301.235
301.393
303.512
305.257
306.758
308.087
309.285
310.382
311.398
312.348
313.244
314.096
314.911
315.695
316.453
317.188
317.905
318.605
319.29
319.963
320.622
321.27
321.906
322.53
323.141
323.739
324.323
324.892
325.444
325.978
326.492
326.986
327.456
327.902
328.321
328.713
329.075
329.406
329.704
329.968
330.198
330.391
330.546
330.664
330.744
330.785
330.787
330.75
330.675
330.562
330.411
330.224
330.002
329.746
329.457
329.137
328.787
328.41
328.008
327.582
327.134
326.668
326.184
325.686
325.175
324.653
324.122
323.586
323.044
322.5
321.954
321.409
320.865
320.324
319.787
319.254
318.726
318.203
317.685
317.172
316.664
316.159
315.656
315.153
314.65
314.143
313.629
313.105
312.567
312.011
311.429
310.817
310.164
309.462
308.698
307.855
306.914
305.844
304.603
303.119
301.262
301.429
303.62
305.437
307.009
308.408
309.675
310.841
311.923
312.94
313.901
314.817
315.695
316.541
317.361
318.157
318.935
319.695
320.439
321.17
321.888
322.593
323.286
323.966
324.633
325.285
325.923
326.543
327.146
327.729
328.291
328.83
329.344
329.831
330.289
330.718
331.113
331.475
331.801
332.09
332.341
332.552
332.723
332.852
332.94
332.985
332.987
332.947
332.866
332.742
332.578
332.374
332.131
331.851
331.535
331.186
330.804
330.392
329.953
329.487
328.999
328.489
327.96
327.416
326.857
326.287
325.707
325.121
324.529
323.935
323.339
322.743
322.149
321.558
320.972
320.39
319.814
319.244
318.679
318.12
317.567
317.017
316.47
315.925
315.379
314.829
314.273
313.708
313.129
312.53
311.907
311.252
310.557
309.811
309.003
308.115
307.128
306.011
304.723
303.192
301.286
301.463
303.723
305.608
307.248
308.715
310.049
311.28
312.428
313.508
314.533
315.512
316.453
317.361
318.241
319.099
319.936
320.756
321.56
322.35
323.126
323.889
324.639
325.376
326.098
326.805
327.496
328.17
328.824
329.456
330.066
330.651
331.209
331.738
332.236
332.701
333.131
333.524
333.879
334.193
334.466
334.695
334.881
335.022
335.117
335.166
335.169
335.127
335.038
334.904
334.726
334.505
334.242
333.938
333.595
333.216
332.802
332.355
331.877
331.372
330.841
330.288
329.714
329.123
328.516
327.897
327.268
326.631
325.989
325.343
324.696
324.05
323.405
322.764
322.128
321.497
320.873
320.255
319.643
319.038
318.439
317.844
317.254
316.665
316.076
315.485
314.888
314.281
313.66
313.021
312.357
311.661
310.925
310.138
309.287
308.357
307.327
306.167
304.834
303.259
301.308
301.496
303.822
305.773
307.478
309.009
310.408
311.703
312.915
314.058
315.146
316.186
317.188
318.157
319.099
320.017
320.914
321.794
322.657
323.506
324.341
325.162
325.969
326.763
327.541
328.304
329.049
329.775
330.48
331.163
331.822
332.453
333.056
333.627
334.165
334.667
335.132
335.557
335.94
336.28
336.575
336.823
337.024
337.177
337.28
337.334
337.337
337.291
337.196
337.052
336.86
336.622
336.338
336.01
335.64
335.23
334.783
334.301
333.785
333.24
332.667
332.069
331.449
330.811
330.156
329.487
328.808
328.12
327.427
326.73
326.031
325.333
324.638
323.946
323.26
322.579
321.906
321.24
320.581
319.929
319.284
318.645
318.011
317.379
316.747
316.114
315.476
314.828
314.168
313.488
312.784
312.049
311.272
310.445
309.555
308.584
307.513
306.312
304.938
303.321
301.329
301.528
303.918
305.931
307.7
309.294
310.756
312.113
313.387
314.592
315.74
316.842
317.905
318.935
319.936
320.914
321.871
322.81
323.733
324.641
325.535
326.414
327.279
328.13
328.965
329.783
330.582
331.362
332.119
332.853
333.56
334.239
334.886
335.5
336.079
336.619
337.118
337.575
337.988
338.353
338.671
338.938
339.155
339.319
339.431
339.489
339.493
339.445
339.343
339.188
338.982
338.726
338.421
338.069
337.672
337.232
336.752
336.233
335.679
335.093
334.477
333.835
333.169
332.483
331.779
331.061
330.33
329.591
328.846
328.097
327.347
326.597
325.85
325.107
324.37
323.64
322.917
322.202
321.496
320.798
320.107
319.423
318.744
318.069
317.396
316.721
316.041
315.354
314.653
313.935
313.192
312.417
311.603
310.737
309.808
308.799
307.689
306.449
305.036
303.38
301.348
301.559
304.01
306.085
307.916
309.571
311.093
312.512
313.846
315.111
316.32
317.482
318.605
319.695
320.756
321.794
322.81
323.809
324.791
325.758
326.71
327.648
328.571
329.479
330.371
331.245
332.099
332.933
333.743
334.527
335.284
336.01
336.703
337.36
337.979
338.557
339.092
339.582
340.024
340.415
340.756
341.042
341.275
341.451
341.571
341.634
341.639
341.588
341.479
341.314
341.094
340.821
340.495
340.118
339.694
339.223
338.709
338.154
337.562
336.934
336.275
335.588
334.876
334.141
333.388
332.619
331.838
331.047
330.25
329.448
328.645
327.843
327.044
326.25
325.462
324.681
323.909
323.145
322.391
321.646
320.909
320.18
319.458
318.739
318.024
317.308
316.588
315.86
315.121
314.363
313.582
312.77
311.918
311.015
310.049
309.003
307.856
306.579
305.129
303.436
301.367
301.589
304.1
306.235
308.125
309.84
311.422
312.9
314.294
315.619
316.887
318.108
319.29
320.439
321.56
322.657
323.733
324.791
325.832
326.858
327.869
328.866
329.847
330.813
331.761
332.691
333.601
334.488
335.351
336.187
336.993
337.767
338.506
339.207
339.867
340.484
341.054
341.577
342.048
342.466
342.83
343.136
343.384
343.573
343.702
343.769
343.776
343.721
343.606
343.431
343.197
342.905
342.558
342.157
341.705
341.203
340.656
340.064
339.433
338.764
338.062
337.329
336.57
335.787
334.984
334.164
333.331
332.488
331.638
330.784
329.929
329.074
328.223
327.376
326.537
325.706
324.883
324.071
323.269
322.476
321.694
320.92
320.153
319.392
318.634
317.877
317.117
316.35
315.572
314.777
313.958
313.109
312.22
311.281
310.279
309.197
308.015
306.702
305.217
303.488
301.385
301.618
304.187
306.381
308.329
310.103
311.743
313.279
314.731
316.115
317.442
318.722
319.963
321.17
322.35
323.506
324.641
325.758
326.858
327.943
329.013
330.068
331.107
332.131
333.136
334.123
335.088
336.029
336.945
337.833
338.689
339.511
340.296
341.04
341.742
342.398
343.005
343.56
344.061
344.506
344.893
345.219
345.483
345.685
345.822
345.894
345.902
345.844
345.722
345.537
345.289
344.98
344.612
344.186
343.706
343.173
342.592
341.964
341.293
340.583
339.837
339.059
338.252
337.42
336.567
335.696
334.812
333.916
333.014
332.106
331.198
330.29
329.386
328.488
327.597
326.714
325.842
324.981
324.13
323.291
322.462
321.643
320.832
320.028
319.229
318.431
317.631
316.825
316.009
315.176
314.321
313.436
312.511
311.537
310.5
309.384
308.167
306.821
305.302
303.539
301.402
301.646
304.273
306.523
308.529
310.359
312.057
313.65
315.16
316.601
317.986
319.323
320.622
321.888
323.126
324.341
325.535
326.71
327.869
329.013
330.142
331.255
332.353
333.434
334.496
335.539
336.56
337.556
338.525
339.464
340.37
341.241
342.072
342.861
343.604
344.299
344.942
345.53
346.062
346.534
346.944
347.29
347.571
347.784
347.93
348.008
348.016
347.956
347.828
347.632
347.37
347.043
346.654
346.204
345.696
345.132
344.517
343.852
343.142
342.39
341.6
340.776
339.922
339.041
338.138
337.216
336.279
335.331
334.375
333.415
332.453
331.492
330.535
329.585
328.642
327.709
326.786
325.876
324.977
324.09
323.215
322.351
321.497
320.65
319.809
318.97
318.131
317.287
316.433
315.563
314.672
313.751
312.792
311.784
310.713
309.564
308.314
306.935
305.383
303.588
301.418
301.674
304.356
306.663
308.724
310.611
312.364
314.014
315.58
317.077
318.519
319.914
321.27
322.593
323.889
325.162
326.414
327.648
328.866
330.068
331.255
332.427
333.582
334.721
335.841
336.94
338.016
339.067
340.089
341.08
342.037
342.955
343.833
344.666
345.451
346.185
346.864
347.486
348.048
348.547
348.981
349.347
349.644
349.871
350.026
350.108
350.118
350.055
349.921
349.714
349.438
349.094
348.683
348.209
347.673
347.078
346.428
345.727
344.978
344.184
343.35
342.481
341.579
340.649
339.695
338.722
337.733
336.732
335.723
334.709
333.694
332.68
331.67
330.667
329.673
328.689
327.716
326.756
325.809
324.876
323.955
323.046
322.148
321.259
320.376
319.497
318.619
317.736
316.845
315.939
315.013
314.057
313.064
312.022
310.919
309.737
308.455
307.044
305.461
303.635
301.433
301.701
304.438
306.799
308.915
310.856
312.665
314.37
315.991
317.545
319.042
320.493
321.906
323.286
324.639
325.969
327.279
328.571
329.847
331.107
332.353
333.582
334.796
335.992
337.169
338.324
339.456
340.561
341.636
342.679
343.686
344.653
345.577
346.454
347.281
348.054
348.77
349.425
350.018
350.544
351.001
351.387
351.701
351.94
352.104
352.192
352.203
352.138
351.997
351.781
351.491
351.129
350.697
350.198
349.634
349.009
348.325
347.587
346.798
345.963
345.086
344.17
343.22
342.242
341.238
340.213
339.172
338.119
337.056
335.989
334.921
333.854
332.791
331.736
330.689
329.654
328.632
327.623
326.628
325.647
324.68
323.727
322.785
321.854
320.93
320.012
319.094
318.174
317.246
316.305
315.344
314.354
313.328
312.254
311.118
309.905
308.592
307.15
305.536
303.68
301.448
301.728
304.518
306.932
309.102
311.097
312.959
314.718
316.394
318.002
319.555
321.061
322.53
323.966
325.376
326.763
328.13
329.479
330.813
332.131
333.434
334.721
335.992
337.245
338.478
339.69
340.877
342.036
343.164
344.259
345.315
346.331
347.301
348.222
349.091
349.903
350.656
351.345
351.967
352.52
353.001
353.408
353.738
353.991
354.164
354.257
354.269
354.202
354.054
353.828
353.525
353.145
352.693
352.169
351.577
350.921
350.204
349.429
348.601
347.725
346.803
345.842
344.845
343.818
342.764
341.688
340.595
339.489
338.373
337.253
336.131
335.011
333.896
332.789
331.691
330.605
329.533
328.475
327.432
326.405
325.393
324.395
323.41
322.437
321.473
320.514
319.559
318.601
317.637
316.661
315.665
314.643
313.584
312.478
311.311
310.067
308.724
307.253
305.609
303.724
301.463
301.754
304.596
307.063
309.285
311.332
313.247
315.059
316.788
318.45
320.057
321.618
323.141
324.633
326.098
327.541
328.965
330.371
331.761
333.136
334.496
335.841
337.169
338.478
339.768
341.035
342.276
343.489
344.671
345.816
346.923
347.986
349.002
349.968
350.878
351.729
352.518
353.24
353.893
354.473
354.978
355.405
355.752
356.017
356.199
356.298
356.312
356.242
356.088
355.852
355.535
355.139
354.665
354.117
353.498
352.811
352.061
351.25
350.383
349.465
348.5
347.494
346.45
345.374
344.27
343.143
341.999
340.84
339.672
338.499
337.325
336.152
334.985
333.825
332.676
331.54
330.418
329.312
328.222
327.148
326.091
325.049
324.022
323.007
322.003
321.005
320.012
319.018
318.018
317.008
315.979
314.923
313.833
312.696
311.498
310.225
308.852
307.352
305.68
303.766
301.477
301.779
304.673
307.19
309.463
311.562
313.529
315.392
317.174
318.888
320.547
322.162
323.739
325.285
326.805
328.304
329.783
331.245
332.691
334.123
335.539
336.94
338.324
339.69
341.035
342.357
343.653
344.919
346.152
347.349
348.504
349.615
350.677
351.686
352.637
353.527
354.352
355.108
355.791
356.398
356.926
357.373
357.737
358.015
358.206
358.31
358.326
358.254
358.095
357.849
357.518
357.105
356.611
356.039
355.393
354.676
353.892
353.045
352.14
351.181
350.174
349.122
348.032
346.907
345.754
344.577
343.381
342.171
340.951
339.726
338.499
337.274
336.054
334.844
333.644
332.458
331.287
330.133
328.996
327.876
326.774
325.689
324.62
323.564
322.52
321.485
320.454
319.424
318.39
317.345
316.283
315.196
314.074
312.907
311.68
310.377
308.977
307.448
305.749
303.807
301.491
301.804
304.747
307.314
309.637
311.785
313.803
315.717
317.549
319.315
321.026
322.693
324.323
325.923
327.496
329.049
330.582
332.099
333.601
335.088
336.56
338.016
339.456
340.877
342.276
343.653
345.002
346.321
347.605
348.852
350.057
351.215
352.322
353.374
354.366
355.294
356.154
356.943
357.656
358.289
358.841
359.308
359.688
359.979
360.18
360.289
360.307
360.233
360.068
359.812
359.469
359.038
358.524
357.929
357.256
356.51
355.693
354.811
353.868
352.869
351.819
350.723
349.586
348.415
347.213
345.986
344.74
343.478
342.207
340.929
339.651
338.374
337.104
335.843
334.593
333.358
332.138
330.937
329.753
328.589
327.443
326.315
325.204
324.108
323.025
321.952
320.885
319.819
318.751
317.673
316.579
315.461
314.309
313.112
311.856
310.525
309.097
307.541
305.815
303.847
301.504
301.828
304.819
307.434
309.806
312.003
314.069
316.033
317.915
319.731
321.493
323.21
324.892
326.543
328.17
329.775
331.362
332.933
334.488
336.029
337.556
339.067
340.561
342.036
343.489
344.919
346.321
347.691
349.027
350.323
351.575
352.78
353.931
355.025
356.058
357.024
357.919
358.74
359.482
360.143
360.718
361.204
361.601
361.904
362.114
362.229
362.248
362.173
362.002
361.737
361.381
360.935
360.401
359.782
359.083
358.307
357.459
356.542
355.561
354.523
353.431
352.292
351.11
349.892
348.642
347.366
346.07
344.758
343.436
342.108
340.778
339.451
338.131
336.819
335.521
334.237
332.97
331.722
330.493
329.284
328.095
326.925
325.773
324.638
323.516
322.406
321.303
320.203
319.101
317.991
316.866
315.717
314.536
313.31
312.027
310.669
309.214
307.632
305.879
303.885
301.517
301.852
304.889
307.551
309.969
312.214
314.328
316.339
318.269
320.134
321.945
323.712
325.444
327.146
328.824
330.48
332.119
333.743
335.351
336.945
338.525
340.089
341.636
343.164
344.671
346.152
347.605
349.027
350.412
351.756
353.056
354.305
355.501
356.637
357.708
358.712
359.642
360.494
361.266
361.952
362.549
363.056
363.468
363.784
364.003
364.124
364.145
364.068
363.891
363.618
363.249
362.787
362.234
361.593
360.869
360.064
359.184
358.233
357.216
356.139
355.006
353.824
352.598
351.334
350.038
348.714
347.369
346.008
344.636
343.258
341.879
340.502
339.132
337.772
336.425
335.094
333.78
332.486
331.213
329.96
328.729
327.518
326.326
325.152
323.994
322.847
321.71
320.576
319.441
318.3
317.144
315.966
314.756
313.503
312.192
310.807
309.326
307.719
305.941
303.922
301.529
301.874
304.957
307.664
310.128
312.418
314.577
316.635
318.612
320.524
322.382
324.198
325.978
327.729
329.456
331.163
332.853
334.527
336.187
337.833
339.464
341.08
342.679
344.259
345.816
347.349
348.852
350.323
351.756
353.148
354.493
355.788
357.025
358.202
359.312
360.352
361.316
362.2
362.999
363.711
364.331
364.856
365.284
365.613
365.841
365.967
365.99
365.911
365.73
365.448
365.067
364.59
364.018
363.355
362.606
361.774
360.863
359.879
358.827
357.711
356.539
355.316
354.046
352.738
351.395
350.025
348.633
347.224
345.803
344.377
342.949
341.523
340.105
338.697
337.303
335.926
334.567
333.228
331.911
330.616
329.344
328.093
326.862
325.651
324.456
323.274
322.103
320.936
319.77
318.598
317.413
316.206
314.968
313.688
312.351
310.941
309.435
307.803
306.001
303.958
301.541
301.896
305.022
307.773
310.28
312.614
314.818
316.92
318.942
320.899
322.803
324.665
326.492
328.291
330.066
331.822
333.56
335.284
336.993
338.689
340.37
342.037
343.686
345.315
346.923
348.504
350.057
351.575
353.056
354.493
355.883
357.221
358.5
359.716
360.864
361.939
362.936
363.85
364.677
365.414
366.055
366.599
367.043
367.384
367.621
367.752
367.778
367.697
367.511
367.221
366.829
366.336
365.747
365.063
364.289
363.43
362.49
361.474
360.387
359.235
358.025
356.761
355.45
354.098
352.711
351.295
349.857
348.401
346.934
345.46
343.984
342.512
341.047
339.593
338.153
336.731
335.328
333.946
332.587
331.251
329.938
328.648
327.38
326.132
324.902
323.686
322.482
321.284
320.087
318.885
317.671
316.437
315.173
313.866
312.504
311.069
309.539
307.883
306.058
303.992
301.552
301.917
305.084
307.877
310.426
312.802
315.048
317.193
319.258
321.258
323.207
325.113
326.986
328.83
330.651
332.453
334.239
336.01
337.767
339.511
341.241
342.955
344.653
346.331
347.986
349.615
351.215
352.78
354.305
355.788
357.221
358.599
359.919
361.173
362.358
363.467
364.495
365.439
366.293
367.054
367.717
368.279
368.738
369.091
369.336
369.473
369.501
369.419
369.228
368.93
368.527
368.02
367.413
366.709
365.913
365.028
364.059
363.012
361.892
360.705
359.457
358.154
356.803
355.409
353.979
352.52
351.037
349.536
348.023
346.504
344.983
343.465
341.955
340.456
338.972
337.506
336.06
334.637
333.237
331.861
330.51
329.183
327.878
326.595
325.331
324.082
322.846
321.617
320.391
319.161
317.92
316.659
315.368
314.037
312.651
311.192
309.639
307.961
306.113
304.025
301.563
301.936
305.143
307.976
310.565
312.981
315.267
317.453
319.559
321.601
323.592
325.541
327.456
329.344
331.209
333.056
334.886
336.703
338.506
340.296
342.072
343.833
345.577
347.301
349.002
350.677
352.322
353.931
355.501
357.025
358.5
359.919
361.277
362.568
363.787
364.929
365.989
366.961
367.841
368.624
369.308
369.888
370.361
370.726
370.98
371.122
371.152
371.069
370.874
370.569
370.155
369.635
369.011
368.288
367.469
366.559
365.564
364.487
363.335
362.114
360.831
359.491
358.1
356.667
355.196
353.694
352.168
350.624
349.068
347.505
345.94
344.378
342.825
341.283
339.757
338.249
336.762
335.299
333.86
332.446
331.057
329.694
328.355
327.038
325.741
324.461
323.194
321.936
320.682
319.424
318.157
316.87
315.556
314.201
312.791
311.31
309.735
308.035
306.166
304.056
301.574
301.955
305.2
308.069
310.696
313.15
315.475
317.699
319.844
321.926
323.956
325.946
327.902
329.831
331.738
333.627
335.5
337.36
339.207
341.04
342.861
344.666
346.454
348.222
349.968
351.686
353.374
355.025
356.637
358.202
359.716
361.173
362.568
363.895
365.147
366.321
367.41
368.409
369.314
370.12
370.823
371.42
371.907
372.283
372.545
372.693
372.725
372.641
372.442
372.13
371.707
371.174
370.534
369.793
368.953
368.02
366.998
365.893
364.711
363.458
362.14
360.765
359.338
357.866
356.356
354.814
353.247
351.662
350.064
348.459
346.852
345.249
343.654
342.071
340.505
338.957
337.431
335.929
334.453
333.002
331.579
330.181
328.808
327.459
326.131
324.821
323.526
322.24
320.958
319.675
318.382
317.072
315.733
314.356
312.924
311.422
309.825
308.105
306.216
304.086
301.584
301.973
305.252
308.158
310.82
313.31
315.67
317.931
320.113
322.231
324.299
326.327
328.321
330.289
332.236
334.165
336.079
337.979
339.867
341.742
343.604
345.451
347.281
349.091
350.878
352.637
354.366
356.058
357.708
359.312
360.864
362.358
363.787
365.147
366.432
367.635
368.752
369.777
370.706
371.533
372.255
372.868
373.369
373.756
374.026
374.178
374.212
374.128
373.926
373.608
373.175
372.63
371.976
371.217
370.357
369.402
368.356
367.224
366.014
364.73
363.381
361.971
360.509
359.001
357.454
355.874
354.269
352.645
351.007
349.362
347.716
346.073
344.439
342.818
341.213
339.627
338.064
336.526
335.014
333.529
332.072
330.642
329.237
327.858
326.5
325.162
323.839
322.526
321.219
319.911
318.595
317.262
315.901
314.502
313.05
311.527
309.911
308.171
306.263
304.114
301.593
301.989
305.302
308.24
310.935
313.458
315.853
318.147
320.363
322.516
324.619
326.682
328.713
330.718
332.701
334.667
336.619
338.557
340.484
342.398
344.299
346.185
348.054
349.903
351.729
353.527
355.294
357.024
358.712
360.352
361.939
363.467
364.929
366.321
367.635
368.867
370.01
371.06
372.011
372.858
373.598
374.226
374.74
375.137
375.415
375.572
375.608
375.524
375.319
374.994
374.553
373.997
373.329
372.554
371.676
370.7
369.631
368.475
367.237
365.925
364.546
363.105
361.61
360.068
358.486
356.871
355.229
353.568
351.893
350.212
348.528
346.848
345.177
343.519
341.878
340.257
338.659
337.087
335.542
334.024
332.535
331.074
329.64
328.232
326.847
325.482
324.133
322.796
321.465
320.133
318.795
317.44
316.059
314.64
313.168
311.626
309.991
308.233
306.307
304.141
301.602
302.004
305.347
308.316
311.042
313.596
316.021
318.347
320.594
322.78
324.915
327.011
329.075
331.113
333.131
335.132
337.118
339.092
341.054
343.005
344.942
346.864
348.77
350.656
352.518
354.352
356.154
357.919
359.642
361.316
362.936
364.495
365.989
367.41
368.752
370.01
371.178
372.251
373.222
374.088
374.845
375.488
376.014
376.42
376.705
376.868
376.906
376.821
376.613
376.284
375.834
375.268
374.588
373.799
372.903
371.908
370.818
369.638
368.376
367.038
365.63
364.16
362.635
361.062
359.447
357.799
356.124
354.428
352.719
351.003
349.284
347.57
345.865
344.172
342.498
340.844
339.214
337.609
336.033
334.485
332.967
331.477
330.016
328.581
327.17
325.779
324.406
323.046
321.693
320.34
318.981
317.606
316.205
314.767
313.277
311.718
310.066
308.291
306.348
304.165
301.61
302.018
305.389
308.385
311.139
313.721
316.175
318.529
320.806
323.02
325.186
327.311
329.406
331.475
333.524
335.557
337.575
339.582
341.577
343.56
345.53
347.486
349.425
351.345
353.24
355.108
356.943
358.74
360.494
362.2
363.85
365.439
366.961
368.409
369.777
371.06
372.251
373.344
374.335
375.219
375.991
376.647
377.184
377.6
377.892
378.059
378.1
378.015
377.805
377.47
377.014
376.439
375.747
374.944
374.033
373.02
371.911
370.71
369.426
368.063
366.63
365.133
363.58
361.977
360.333
358.654
356.948
355.221
353.48
351.732
349.982
348.236
346.498
344.775
343.069
341.385
339.725
338.091
336.486
334.911
333.365
331.849
330.362
328.902
327.467
326.054
324.659
323.277
321.903
320.531
319.152
317.759
316.34
314.885
313.378
311.802
310.134
308.344
306.385
304.188
301.618
302.031
305.426
308.448
311.227
313.834
316.313
318.693
320.996
323.237
325.429
327.582
329.704