/*--------------------------------*- C++ -*----------------------------------*\
  =========                 |
  \\      /  F ield         | OpenFOAM: The Open Source CFD Toolbox
   \\    /   O peration     | Website:  https://openfoam.org
    \\  /    A nd           | Version:  9
     \\/     M anipulation  |
\*---------------------------------------------------------------------------*/
FoamFile
{
    format      ascii;
    class       volScalarField;
    location    "0.05";
    object      gradTx;
}
// * * * * * * * * * * * * * * * * * * * * * * * * * * * * * * * * * * * * * //

dimensions      [0 -1 0 1 0 0 0];

internalField   nonuniform List<scalar> 
200000
(
4757.78
2036.02
1120.71
725.128
519.66
400.838
328.771
285.081
260.031
247.889
244.999
248.884
257.784
270.395
285.717
302.958
321.464
340.679
360.114
379.321
397.884
415.404
431.502
445.807
457.967
467.641
474.513
478.29
478.709
475.545
468.613
457.777
442.954
424.117
401.296
374.587
344.144
310.187
272.992
232.893
190.274
145.567
99.2394
51.7907
3.74052
-44.3796
-92.0364
-138.705
-183.877
-227.072
-267.845
-305.794
-340.567
-371.866
-399.454
-423.154
-442.852
-458.498
-470.101
-477.73
-481.506
-481.602
-478.232
-471.648
-462.132
-449.989
-435.54
-419.115
-401.048
-381.669
-361.298
-340.243
-318.793
-297.219
-275.767
-254.661
-234.1
-214.262
-195.304
-177.369
-160.59
-145.095
-131.025
-118.542
-107.85
-99.2233
-93.0371
-89.8184
-90.3135
-95.5906
-107.198
-127.427
-159.779
-209.874
-287.375
-410.632
-619.548
-1017.63
-1934.57
-4657.12
9243.36
4992.78
3064.01
2076.35
1518.85
1183.82
976.995
850.645
778.139
743.32
735.701
748.094
775.344
813.616
859.953
912.002
967.82
1025.75
1084.32
1142.19
1198.11
1250.89
1299.39
1342.48
1379.12
1408.27
1428.98
1440.37
1441.65
1432.14
1411.29
1378.68
1334.06
1277.35
1208.65
1128.23
1036.57
934.33
822.334
701.589
573.256
438.63
299.123
156.236
11.5352
-133.38
-276.902
-417.45
-553.495
-683.59
-806.393
-920.694
-1025.43
-1119.71
-1202.81
-1274.21
-1333.55
-1380.69
-1415.66
-1438.66
-1450.05
-1450.36
-1440.24
-1420.43
-1391.79
-1355.23
-1311.73
-1262.28
-1207.88
-1149.53
-1088.19
-1024.78
-960.188
-895.217
-830.611
-767.045
-705.119
-645.367
-588.264
-534.237
-483.681
-436.987
-394.569
-356.911
-324.62
-298.504
-279.672
-269.677
-270.711
-285.904
-319.766
-378.93
-473.422
-619.053
-842.244
-1190.62
-1758.5
-2753.7
-4687.35
-8940.32
11786.6
7029.27
4601.33
3241.26
2427.03
1920.08
1600.82
1404.01
1291.2
1238.19
1228.84
1251.87
1299.09
1364.32
1442.79
1530.63
1624.67
1722.16
1820.68
1917.98
2011.99
2100.71
2182.22
2254.66
2316.25
2365.27
2400.12
2419.32
2421.54
2405.64
2370.69
2315.99
2241.13
2145.95
2030.63
1895.64
1741.76
1570.09
1382.03
1179.27
963.763
737.674
503.376
263.392
20.3492
-223.063
-464.147
-700.245
-928.79
-1147.35
-1353.67
-1545.72
-1721.71
-1880.14
-2019.81
-2139.81
-2239.57
-2318.84
-2377.65
-2416.36
-2435.58
-2436.18
-2419.24
-2386.04
-2337.99
-2276.64
-2203.62
-2120.6
-2029.26
-1931.27
-1828.25
-1721.77
-1613.28
-1504.14
-1395.62
-1288.83
-1184.79
-1084.4
-988.442
-897.637
-812.643
-734.106
-662.709
-599.244
-544.699
-500.386
-468.095
-450.325
-450.589
-473.865
-527.271
-621.146
-770.858
-1000.04
-1346.76
-1876.13
-2707.79
-4080.52
-6516.65
-11278
13428.1
8473.4
5797.2
4215.9
3229.34
2597.42
2192.6
1941.34
1798.22
1733.56
1727
1763.99
1833.75
1928.08
2040.51
2165.83
2299.63
2438.15
2578
2716.06
2849.42
2975.25
3090.86
3193.62
3281
3350.59
3400.11
3427.47
3430.78
3408.42
3359.08
3281.77
3175.9
3041.25
2878.05
2686.97
2469.13
2226.08
1959.79
1672.66
1367.45
1047.23
715.35
375.394
31.0808
-313.781
-655.369
-989.918
-1313.79
-1623.54
-1915.97
-2188.19
-2437.68
-2662.31
-2860.36
-3030.55
-3172.08
-3284.58
-3368.09
-3423.12
-3450.53
-3451.55
-3427.71
-3380.81
-3312.87
-3226.07
-3122.73
-3005.19
-2875.85
-2737.08
-2591.17
-2440.33
-2286.63
-2132.01
-1978.24
-1826.92
-1679.47
-1537.17
-1401.13
-1272.36
-1151.79
-1040.3
-938.838
-848.487
-770.586
-706.895
-659.815
-632.671
-630.109
-658.66
-727.568
-850.06
-1045.41
-1342.49
-1786.18
-2449.84
-3461.08
-5060.29
-7748.1
-12708.5
14588.1
9545.4
6740.89
5030.42
3933.65
3216.83
2752.11
2463.04
2300.72
2232.12
2233.92
2289.11
2384.83
2511.14
2660.12
2825.24
3001.04
3182.7
3365.9
3546.67
3721.2
3885.88
4037.18
4171.69
4286.13
4377.32
4442.31
4478.36
4483
4454.13
4390
4289.34
4151.35
3975.76
3762.87
3513.53
3229.21
2911.91
2564.24
2189.29
1790.68
1372.41
938.876
494.736
44.8565
-405.787
-852.201
-1289.46
-1712.82
-2117.75
-2500.1
-2856.08
-3182.38
-3476.21
-3735.33
-3958.08
-4143.36
-4290.71
-4400.19
-4472.44
-4508.58
-4510.22
-4479.36
-4418.34
-4329.8
-4216.6
-4081.74
-3928.31
-3759.43
-3578.19
-3387.6
-3190.54
-2989.72
-2787.67
-2586.7
-2388.9
-2196.15
-2010.08
-1832.17
-1663.7
-1505.87
-1359.82
-1226.72
-1107.94
-1005.11
-920.404
-856.721
-818.079
-810.045
-840.377
-919.929
-1064
-1294.48
-1643.32
-2158.77
-2917
-4045.98
-5779.84
-8599.49
-13649.6
15466.6
10380.8
7507.68
5722.52
4558.1
3787.35
3284.6
2973.15
2802.64
2738.16
2754.49
2832.78
2958.58
3120.47
3309.24
3517.24
3737.93
3965.52
4194.79
4420.85
4639.05
4844.9
5034.06
5202.27
5345.46
5459.68
5541.24
5586.72
5593.06
5557.6
5478.18
5353.2
5181.65
4963.19
4698.18
4387.68
4033.49
3638.14
3204.83
2737.45
2240.48
1718.91
1178.23
624.238
63.0062
-499.258
-1056.32
-1602.05
-2130.49
-2636.02
-3113.43
-3557.99
-3965.58
-4332.69
-4656.53
-4935
-5166.74
-5351.15
-5488.32
-5579.01
-5624.63
-5627.18
-5589.13
-5513.43
-5403.36
-5262.46
-5094.5
-4903.32
-4692.82
-4466.85
-4229.16
-3983.36
-3732.83
-3480.73
-3229.94
-2983.07
-2742.44
-2510.12
-2287.91
-2077.41
-1880.08
-1697.31
-1530.5
-1381.24
-1251.46
-1143.64
-1061.09
-1008.4
-991.818
-1020.03
-1105.02
-1263.48
-1518.86
-1904.75
-2470.66
-3292.98
-4497.51
-6311.81
-9203.75
-14298.8
16172.7
11064.6
8154.49
6327.18
5123.57
4321.76
3798.62
3478.18
3309.7
3257.32
3294.58
3401.35
3561.88
3763.57
3996.08
4250.71
4519.9
4796.95
5075.7
5350.34
5615.35
5865.36
6095.12
6299.54
6473.67
6612.75
6712.31
6768.21
6776.72
6734.63
6639.31
6488.8
6281.88
6018.12
5697.93
5322.6
4894.28
4416.02
3891.71
3326.02
2724.38
2092.84
1438.02
766.963
87.0113
-594.312
-1269.45
-1930.97
-2571.65
-3184.68
-3763.72
-4303.05
-4797.63
-5243.24
-5636.44
-5974.7
-6256.37
-6480.67
-6647.72
-6758.43
-6814.5
-6818.33
-6772.92
-6681.83
-6549.02
-6378.79
-6175.7
-5944.41
-5689.63
-5416.05
-5128.2
-4830.45
-4526.92
-4221.42
-3917.46
-3618.2
-3326.44
-3044.69
-2775.1
-2519.61
-2279.95
-2057.73
-1854.59
-1672.32
-1513.08
-1379.61
-1275.56
-1205.9
-1177.41
-1199.41
-1284.64
-1450.63
-1721.71
-2132.13
-2731.62
-3595.77
-4847.84
-6710.36
-9643.31
-14762.5
16772.4
11652.8
8723.29
6873.81
5650.1
4833.86
4304.17
3986.02
3828.77
3796.09
3860.75
4001.67
4202.08
4448.37
4729.19
5034.87
5356.9
5687.63
6019.98
6347.22
6662.89
6960.69
7234.45
7478.13
7685.89
7852.09
7971.42
8038.95
8050.26
8001.52
7889.58
7712.12
7467.64
7155.63
6776.56
6331.93
5824.3
5257.24
4635.37
3964.22
3250.22
2500.55
1723.07
926.128
118.453
-691.023
-1493.32
-2279.6
-3041.28
-3770.24
-4458.96
-5100.61
-5689.2
-6219.68
-6687.96
-7091.01
-7426.83
-7694.51
-7894.15
-8026.82
-8094.53
-8100.11
-8047.12
-7939.77
-7782.77
-7581.23
-7340.54
-7066.25
-6763.96
-6439.24
-6097.48
-5743.87
-5383.31
-5020.34
-4659.11
-4303.4
-3956.53
-3621.45
-3300.74
-2996.65
-2711.19
-2446.23
-2203.59
-1985.28
-1793.62
-1631.56
-1503
-1413.18
-1369.25
-1380.91
-1461.38
-1628.66
-1907.46
-2332.21
-2952.34
-3842.41
-5123.52
-7014.7
-9971.22
-15104
17308.5
12183.6
9245.18
7386.21
6155.39
5336.9
4811.48
4505.04
4367.2
4361.4
4459.89
4640.85
4886.69
5182.89
5517.21
5879.02
6258.9
6648.26
7039.06
7423.62
7794.5
8144.39
8466.15
8752.74
8997.34
9193.35
9334.57
9415.21
9430.07
9374.67
9245.3
9039.2
8754.62
8390.92
7948.62
7429.45
6836.37
6173.57
5446.41
4661.35
3825.91
2948.49
2038.27
1105.02
158.973
-789.413
-1729.62
-2651.26
-3544.31
-4399.21
-5207.13
-5960.06
-6650.97
-7273.89
-7824.01
-8297.77
-8692.79
-9007.98
-9243.43
-9400.37
-9481.14
-9489.04
-9428.23
-9303.61
-9120.71
-8885.5
-8604.3
-8283.6
-7929.98
-7549.95
-7149.84
-6735.75
-6313.39
-5888.11
-5464.79
-5047.82
-4641.12
-4248.14
-3871.87
-3514.92
-3179.6
-2868
-2582.18
-2324.28
-2096.8
-1902.83
-1746.44
-1633.04
-1570
-1567.26
-1638.29
-1801.3
-2081.08
-2511.99
-3143
-4047.68
-5345.49
-7253.12
-10223
-15363.3
17810.5
12684
9743.37
7883.32
6654.52
5842.84
5330.29
5043.51
4932.38
4960.24
5098.92
5326
5623.16
5975.08
6368.62
6792.28
7235.7
7689.33
8144.13
8591.42
9022.72
9429.67
9804.05
10137.8
10422.9
10651.9
10817.4
10912.9
10932.2
10870.2
10722.5
10485.8
10158.3
9738.91
9228.39
8628.67
7943.14
7176.62
6335.29
5426.63
4459.31
3443.05
2388.49
1306.94
210.26
-889.427
-1979.92
-3049.17
-4085.52
-5077.89
-6016.01
-6890.56
-7693.35
-8417.45
-9057.24
-9608.54
-10068.6
-10436.1
-10711
-10894.9
-10990.4
-11001.3
-10932.4
-10789.4
-10578.6
-10307.1
-9982
-9610.98
-9201.63
-8761.49
-8297.93
-7818.01
-7328.37
-6835.23
-6344.23
-5860.48
-5388.54
-4932.37
-4495.43
-4080.72
-3690.86
-3328.19
-2994.96
-2693.47
-2426.34
-2196.78
-2008.93
-1868.35
-1782.47
-1761.36
-1818.58
-1972.37
-2247.5
-2678.06
-3312.58
-4223.78
-5529.93
-7446.14
-10423.1
-15567.4
18299.7
13173.9
10235.4
8380.13
7159.99
6362.1
5869.41
5609.13
5531.35
5599.32
5784.51
6063.96
6418.67
6832.53
7291.58
7783.39
8296.66
8820.83
9345.85
9861.96
10359.6
10829.2
11261.4
11646.9
11976.8
12242.2
12435
12547.2
12572.1
12503.5
12336.4
12067.2
11693.3
11214
10629.6
9942.63
9156.78
8277.59
7312.12
6268.94
5158
3990.46
2778.5
1535.16
274.039
-990.903
-2245.63
-3476.27
-4669.39
-5812.23
-6892.94
-7900.77
-8826.27
-9661.4
-10399.7
-11036.3
-11567.9
-11993.1
-12311.8
-12525.7
-12637.8
-12652.5
-12575.2
-12412.5
-12171.7
-11860.7
-11488.1
-11062.3
-10592.3
-10086.7
-9553.89
-9002.14
-8439.05
-7871.77
-7306.82
-6750.08
-6206.77
-5681.46
-5178.12
-4700.14
-4250.49
-3831.76
-3446.4
-3096.86
-2785.86
-2516.68
-2293.51
-2121.94
-2009.43
-1966.07
-2005.39
-2145.59
-2411.27
-2836.28
-3468.68
-4380.53
-5689.21
-7608.77
-10588.8
-15734.9
18791.2
13667.8
10734.7
8888.41
7682.01
6903.5
6436.55
6208.82
6170.55
6284.86
6522.88
6861.11
7279.89
7762.35
8293.66
8860.46
9450.47
10052.1
10654.2
11245.8
11816.2
12354.6
12850.4
13293.1
13672.4
13978.3
14201.2
14332.5
14364.1
14289
14101.6
13797.4
13373.8
12829.6
12165.4
11383.6
10488.8
9487.09
8386.49
7196.78
5929.27
4596.69
3212.94
1792.88
352.075
-1093.54
-2527.92
-3935.19
-5299.98
-6607.68
-7844.7
-8998.73
-10058.9
-11016
-11862.6
-12593
-13203.6
-13692.5
-14059.7
-14307
-14437.8
-14457.1
-14371.2
-14187.4
-13914.1
-13560.5
-13136.1
-12650.7
-12114.6
-11537.5
-10929.2
-10299
-9655.6
-9007.26
-8361.42
-7724.81
-7103.38
-6502.37
-5926.27
-5378.94
-4863.7
-4383.42
-3940.76
-3538.28
-3178.81
-2865.67
-2603.06
-2396.54
-2253.56
-2184.13
-2201.7
-2324.35
-2576.48
-2991.66
-3617.54
-4525.67
-5832.74
-7752.05
-10732.4
-15878.9
19296.6
14176.9
11251.3
9417.37
8228.79
7474.34
7038.29
6848.63
6855.69
7022.43
7319.62
7723.22
8212.9
8770.97
9381.73
10030.9
10705.1
11391.6
12078.1
12752.6
13402.8
14016.8
14582.5
15088.1
15521.8
15872.4
16129.1
16281.8
16321.4
16240.1
16031.2
15689.7
15212.5
14598.2
13847.5
12963.1
11949.9
10815
9567.36
8218.07
6779.94
5267.4
3696.21
2083.25
446.178
-1196.88
-2827.68
-4428.16
-5980.84
-7469.06
-8877.34
-10191.6
-11399.6
-12490.6
-13456.1
-14289.8
-14987.2
-15546.4
-15967.2
-16251.7
-16403.6
-16428.5
-16333.7
-16127.3
-15819.1
-15419.1
-14938.5
-14388.3
-13780.1
-13125.1
-12434.4
-11718.5
-10987.4
-10250.5
-9516.24
-8792.27
-8085.38
-7401.51
-6745.75
-6122.46
-5535.33
-4987.55
-4481.96
-4021.29
-3608.41
-3246.67
-2940.27
-2694.7
-2517.33
-2418.05
-2410.2
-2511.65
-2746.62
-3148.38
-3764.21
-4665.23
-5967.62
-7884.1
-10863
-16008.8
19824.4
14709.1
11793.1
9974.15
8806.83
8080.55
7680.06
7533.63
7591.64
7816.84
8179.61
8655.34
9222.98
9864.03
10561.8
11301.1
12067.4
12846.8
13625.7
14390.7
15128.3
15825.1
16467.5
17042.1
17535.8
17935.8
18229.9
18406.7
18455.9
18368.5
18137
17755.8
17221
16531.1
15686.9
14691.3
13549.8
12270.2
10862.9
9340.09
7716.34
6007.86
4232.49
2409.29
558.201
-1300.27
-3145.46
-4956.96
-6714.91
-8400.47
-9996.07
-11485.8
-12855.5
-14093.2
-15189.2
-16136.2
-16929.2
-17565.8
-18045.8
-18371.4
-18546.9
-18578.7
-18474.6
-18244.2
-17898.2
-17448.2
-16906.5
-16285.9
-15599.3
-14859.5
-14079
-13269.7
-12443
-11609.5
-10778.7
-9959.33
-9159.11
-8384.71
-7641.9
-6935.55
-6269.79
-5648.12
-5073.6
-4549.11
-4077.58
-3662.37
-3307.61
-3018.73
-2802.97
-2670.1
-2633.24
-2710.1
-2924.64
-3309.84
-3912.69
-4803.9
-6099.22
-8010.94
-10986.9
-16131.4
20380.6
15270.8
12365.8
10564.2
9421.17
8726.77
8366.2
8267.95
8382.4
8672.07
9106.89
9661.66
10314.6
11046.2
11839
12676.6
13543.2
14423.9
15303.6
16167.4
17000.4
17787.6
18513.8
19164.1
19723.7
20178.1
20513.6
20717.4
20777.8
20684.6
20429.5
20005.8
19409.3
18638.1
17693
16577.2
15296.9
13860.8
12280.3
10569.4
8744.16
6822.92
4825.69
2773.91
690.035
-1402.85
-3481.48
-5522.81
-7504.48
-9405.21
-11205.1
-12886.3
-14432.7
-15830.7
-17069.5
-18140.5
-19038.3
-19759.8
-20305
-20676.1
-20878.1
-20917.9
-20804.4
-20548.4
-20161.8
-19657.7
-19050
-18353.1
-17581.4
-16749.5
-15871.4
-14960.6
-14029.8
-13091.1
-12155.3
-11232
-10330.1
-9457.1
-8619.39
-7822.48
-7070.95
-6368.64
-5718.86
-5124.62
-4588.92
-4115.1
-3707.26
-3370.68
-3112.47
-2942.22
-2872.86
-2921.86
-3112.94
-3478.8
-4066.11
-4945.24
-6231.57
-8137.01
-11109.1
-16251.7
20970
15866.2
12973.6
11191.5
10075.6
9416.52
9100.01
9054.75
9231.07
9591.21
10104.6
10745.5
11491.2
12321.3
13217.4
14161.6
15137.3
16128
17117.1
18088.4
19025.2
19910.8
20728.4
21461.3
22092.8
22606.9
22988
23221.9
23295.4
23196.9
22917
22448.2
21785.7
20927.4
19873.8
18628.6
17198.6
15593.5
13826
11911.6
9868.43
7716.87
5479.34
3179.86
843.59
-1503.58
-3835.53
-6126.41
-8351.1
-10485.7
-12507.8
-14397.2
-16135.9
-17708.7
-19103
-20309.4
-21321.5
-22136.1
-22752.7
-23174.1
-23405.4
-23454.6
-23331.6
-23048.3
-22618.2
-22055.9
-21377
-20597.6
-19734
-18802.3
-17818.5
-16797.7
-15754.2
-14701.4
-13651.5
-12615.5
-11603.2
-10623
-9682.21
-8786.89
-7942.11
-7152.1
-6420.43
-5750.25
-5144.63
-4606.9
-4141.06
-3752.28
-3447.49
-3236.07
-3130.73
-3148.72
-3313.46
-3657.4
-4226.89
-5091.97
-6367.67
-8265.56
-11232.8
-16373.1
21595.6
16498.5
13619.6
11858.8
10772.6
10152.2
9883.82
9896.26
10139.8
10576.4
11175.1
11909.2
12755.2
13692
14699.6
15759.3
16853
17962.6
19070.2
20157.8
21207.1
22199.5
23116.3
23938.9
24648.9
25228.1
25659.4
25926.6
26015
25911.8
25606.1
25089.7
24356.9
23405.4
22235.6
20851.6
19260.8
17473.9
15505.1
13371.6
11093.4
8693.43
6196.59
3629.67
1020.77
-1601.19
-4207.04
-6767.87
-9255.54
-11643.3
-13906.1
-16021.2
-17968.5
-19730.8
-21294.1
-22647.7
-23784.3
-24700.2
-25394.9
-25871.3
-26135.3
-26195.4
-26062.7
-25750.6
-25274
-24649.3
-23893.9
-23025.7
-22063
-21023.9
-19925.9
-18786.3
-17620.9
-16444.8
-15271.7
-14113.8
-12982
-11885.9
-10833.5
-9831.67
-8885.92
-8000.91
-7180.49
-6427.98
-5746.52
-5139.39
-4610.52
-4164.93
-3809.36
-3552.97
-3408.22
-3392.08
-3527.73
-3847.3
-4396.85
-5246.09
-6509.73
-8398.97
-11360.7
-16498.2
22259.3
17169.4
14305.5
12567.8
11513.8
10935.4
10719
10793.8
11109.9
11629
12319.4
13153.9
14108.1
15159.5
16287.3
17471.4
18692
19929.8
21165.1
22378.2
23548.8
24656.5
25680.6
26600.4
27395.3
28045.4
28531.5
28835.4
28941
28833.6
28501.2
27934.6
27127.3
26076.6
24782.9
23250.5
21487.6
19506.1
17321.4
14952.8
12422.4
9755.62
6980.11
4125.63
1223.45
-1694.27
-4595.04
-7446.64
-10217.8
-12878.5
-15400.9
-17759.7
-19932.3
-21899.4
-23645.4
-25158.3
-26429.8
-27455.7
-28235.4
-28771.9
-29071.8
-29144.4
-29002.2
-28659.7
-28133.7
-27442.4
-26605.1
-25641.8
-24572.7
-23418
-22197.5
-20930.1
-19633.6
-18324.8
-17019
-15729.8
-14469.4
-13248.3
-12075.7
-10958.9
-9904.29
-8916.81
-8000.63
-7159.25
-6395.88
-5713.78
-5116.76
-4609.7
-4199.11
-3893.91
-3706.31
-3653
-3756.86
-4049.73
-4577.34
-5409.09
-6659.34
-8538.95
-11494.5
-16629
22962
17879.9
15032
13319.3
12300
11766.5
11605.9
11747.6
12141.5
12749
13537.8
14479.9
15549.9
16724.2
17980.8
19298
20654.8
22030
23402.3
24750
26051
27282.6
28422.1
29446.6
30333.4
31060.2
31605.8
31950.1
32075
31964.2
31604.5
30985.2
30099.3
28943.4
27518
25827.8
23881.6
21692.5
19277.5
16657.8
13857.8
10905.7
7832.02
4669.72
1453.43
-1781.19
-4998.11
-8161.59
-11236.8
-14190.6
-16991.9
-19612.5
-22027.3
-24214.8
-26157.5
-27842
-29259.1
-30403.9
-31275.6
-31877.5
-32216.7
-32303.6
-32151.9
-31777.7
-31199.4
-30437.3
-29512.7
-28447.8
-27265.1
-25987
-24635.2
-23231
-21794.2
-20343.2
-18895.1
-17465.1
-16066.7
-14711.7
-13409.9
-12169.9
-10998.3
-9900.81
-8881.78
-7944.92
-7093.51
-6330.8
-5660.47
-5087.23
-4617.37
-4259.55
-4025.7
-3932.2
-4001.63
-4265.52
-4769.29
-5581.98
-6817.61
-8686.68
-11635.4
-16766.6
23703.7
18630
15799.1
14113.1
13130.6
12645.2
12544.2
12757.1
13234
13935.8
14829.5
15886.2
17079.6
18384.9
19778.7
21238
22740
24261.9
25780.5
27272
28712.3
30076.6
31339.7
32476.5
33461.9
34271.4
34881.3
35269.7
35416.3
35303.1
34915.3
34241.1
33272.6
32005.8
30441.3
28583.9
26443.4
24033.9
21374.2
18487.5
15400.9
12145
8753.8
5263.51
1712.37
-1860.23
-5414.49
-8910.88
-12310.9
-15577.8
-18677.2
-21577.8
-24251.8
-26675.3
-28828.9
-30697.5
-32270.9
-33543.6
-34514.5
-35187.2
-35569.3
-35672.4
-35511.3
-35104
-34470.7
-33633.7
-32616.6
-31443.8
-30140.3
-28730.7
-27239.2
-25689.2
-24102.7
-22500.1
-20900.2
-19319.9
-17774.2
-16276.1
-14836.5
-13464.8
-12168.3
-10953.2
-9824.17
-8785.22
-7839.64
-6990.67
-6241.88
-5597.77
-5064.41
-4650.18
-4366.7
-4230.05
-4262.49
-4495.2
-4973.27
-5765.41
-6985.25
-8842.93
-11784.3
-16912
24483.5
19418.6
16605.9
14948
14004.7
13570.2
13532.3
13820.9
14385.7
15187.3
16192.2
17370.5
18694.8
20139.1
21678.4
23288.4
24944.6
26622.2
28296.2
29940.7
31529.2
33034.6
34429.5
35686.2
36777
37675.1
38354.4
38790.6
38961.3
38846.8
38430.5
37699.3
36644.4
35261.4
33550.4
31517
29171.4
26529.1
23610.8
20441.7
17051.5
13474
9746.23
5908.16
2001.79
-1929.53
-5841.99
-9692.04
-13437.2
-17037.1
-20453.6
-23652.3
-26602.3
-29277.4
-31655.8
-33721
-35461.4
-36870.9
-37948.2
-38697.1
-39125.9
-39247.1
-39077.1
-38635.5
-37944.5
-37028.7
-35913.9
-34627.1
-33195.7
-31646.9
-30007.4
-28302.9
-26557.5
-24793.9
-23032.9
-21293.1
-19590.9
-17940.7
-16354.6
-14842.8
-13413.5
-12073.2
-10827.3
-9679.67
-8633.88
-7693.08
-6860.74
-6141.15
-5540.12
-5065.75
-4729.34
-4546.64
-4539.56
-4738.96
-5189.57
-5959.7
-7162.64
-9008.13
-11941.6
-17065.4
25299.7
20244.1
17450.4
15822.3
14920.3
14539.3
14568
14936.3
15593.8
16500.8
17622.9
18929.4
20391.7
21982.6
23675.6
25444.7
27263.6
29105.8
30944
32750.2
34495.6
36150.6
37685.3
39069.2
40272.2
41264.7
42018.3
42506.2
42703.6
42589
42143.9
41354
40209.3
38704.9
36840.7
34622.6
32061.8
29175
25984.6
22518.3
18808.4
14891.9
10809.3
6604.28
2322.97
-1987.17
-6278.06
-10501.9
-14612.2
-18564.3
-22316.5
-25830.8
-29073.4
-32015.1
-34632.1
-36906.1
-38824.1
-40379.3
-41570.2
-42400.8
-42879.9
-43021.4
-42842.9
-42366
-41614.9
-40616.5
-39399.2
-37992.5
-36426.5
-34731.1
-32935.4
-31067.8
-29154.8
-27221.3
-25290
-23381.5
-21513.9
-19702.9
-17961.9
-16301.9
-14732.1
-13259.5
-11889.7
-10627.1
-9475.17
-8437.12
-7516.26
-6716.69
-6043.94
-5505.81
-5113.27
-4881.71
-4832.7
-4996.73
-5418.15
-6164.92
-7349.9
-9182.42
-12107.6
-17227.3
26149.8
21103.9
18330.2
16733.2
15874.4
15549.6
15648.1
16099.9
16854.7
17872.1
19117.2
20558.1
22165.2
23909.9
25764.2
27700.3
29690.3
31705.4
33716.3
35692.7
37603.2
39415.9
41097.9
42616.2
43937.9
45030.7
45863.4
46406.7
46633.6
46520.2
46046.4
45196.2
43958.7
42328.2
40304.7
37894
35108.4
31966
28491.1
24713.6
20668.7
16396.8
11941.9
7351.91
2676.91
-2031.17
-6719.79
-11336.7
-15831
-20153.8
-24259.5
-28106.5
-31657.4
-34880.5
-37749.4
-40243.9
-42349.8
-44059.4
-45370.9
-46288.5
-46821.7
-46985.5
-46799.3
-46286.2
-45472.8
-44388.5
-43064.1
-41532.1
-39825.1
-37975.9
-36016.5
-33977.7
-31888.6
-29776.6
-27666.4
-25580.7
-23539.1
-21559
-19654.9
-17839.1
-16121.3
-14509.3
-13009.2
-11625.5
-10361.8
-9221.26
-8207.12
-7323.25
-6574.9
-5969.54
-5517.79
-5234.68
-5141.42
-5268.12
-5658.75
-6380.85
-7546.87
-9365.71
-12282
-17397.4
27030.6
21994.8
19241.9
17677.2
16863.5
16597.3
16768.4
17307.3
18163.5
19296
20669.3
22250.5
24008.7
25913.9
27936.6
30047.2
32215.8
34411.6
36603.2
38757.6
40841.1
42819
44655.7
46315.2
47761.9
48960.4
49877
50479.4
50738.4
50627.8
50125.4
49213.9
47881
46120.4
43931.8
41321.6
38302.6
34894.5
31123.5
27021.9
22628.1
17985.5
13142.4
8150.43
3064.29
-2059.58
-7163.97
-12192
-17088
-21799
-26275
-30470.4
-34344.7
-37863
-40996.4
-43722.7
-46026.4
-47898.7
-49337.6
-50347.4
-50938.5
-51126.8
-50933.5
-50383.6
-49506.2
-48332.8
-46897.3
-45234.9
-43381.1
-41371.6
-39241.3
-37023.8
-34750.9
-32452.3
-30155.2
-27884
-25660.5
-23503.5
-21428.8
-19449.8
-17577.2
-15819.3
-14182.6
-12672
-11291.2
-10043.3
-8931.42
-7959.18
-7131.56
-6455.69
-5941.85
-5604.68
-5464.99
-5552.52
-5910.83
-6607.05
-7753.18
-9557.66
-12464.7
-17575.6
27938.1
22912.8
20181.4
18650.2
17883.1
17677.5
17923.9
18553.1
19514.3
20766.3
22272.5
23999.2
25914.2
27986
30183.4
32475.2
34829.3
37213.1
39592.4
41932.2
44195.9
46345.9
48343.9
50151.1
51728.5
53038
54042.9
54708.2
55002
54895.7
54365.3
53391.7
51961.4
50067.3
47709
44892.9
41633
37950.3
33872.9
29435.8
24680.4
19653.6
14407.6
8998.5
3485.4
-2070.49
-7607.09
-13062.6
-18376.8
-23491.8
-28353.4
-32912.1
-37123.7
-40949.9
-44359.6
-47328.2
-49838.8
-51881.7
-53454.3
-54561.4
-55213.9
-55429.1
-55229.6
-54642.6
-53699.5
-52434.5
-50884.3
-49087
-47081.1
-44905.5
-42598
-40195
-37731.2
-35238.7
-32747.3
-30283.3
-27870.6
-25529.5
-23277.3
-21128.4
-19094.6
-17184.7
-15405.8
-13763
-12260.2
-10900.4
-9686.64
-8622.28
-7712.02
-6962.64
-6384.03
-5990.47
-5802.36
-5849.03
-6173.63
-6842.85
-7968.23
-9757.75
-12655.2
-17761.3
28867.7
23853.1
21143.8
19647.1
18927.9
18784.8
19108.8
19831
20900.5
22275.5
23918.8
25795.5
27872.2
30115.8
32493.6
34972.4
37518.3
40096.2
42669.7
45201.2
47651.4
49979.9
52145.3
54105.8
55819.3
57244.6
58342
59073.7
59404.9
59304.8
58747.1
57711.1
56182
54151.8
51619.8
48592.9
45085.7
41120.8
36728.3
31945.8
26817.9
21395.2
15733.7
9894.04
3940.07
-2062.09
-8045.4
-13943.1
-19689.8
-25223
-30484
-35419.1
-39980.3
-44126.2
-47822.7
-51043.2
-53769.1
-55989.7
-57702.1
-58911.1
-59628.6
-59872.8
-59668.2
-59044.1
-58034.2
-56675.5
-55007.5
-53071.5
-50909.1
-48562.3
-46072
-43477.6
-40816.6
-38123.9
-35431.5
-32768.4
-30159.9
-27628.3
-25192.5
-22867.9
-20667
-18599.9
-16673.7
-14894
-13264.7
-11789.1
-10469.7
-9309.86
-8313.93
-7488.33
-6842.57
-6390.53
-6152.2
-6156.5
-6446.14
-7087.36
-8191.24
-9965.24
-12852.7
-17954
29814
24810.4
22123.7
20662.3
19992.1
19912.9
20316.4
21133.7
22314.1
23815.2
25598.9
27629.4
29871.8
32291.6
34854.4
37525.2
40267.9
43045.2
45818.4
48547.1
51189.2
53701.6
56039.6
58158.4
60012.7
61558.2
62751.9
63553.2
63924.5
63832.4
63248.5
62150.2
60521.5
58353.4
55644.9
52403.3
48643.9
44390.9
39676.3
34540.6
29031.2
23202.8
17115.4
10834.1
4427.7
-2032.73
-8474.97
-14827.1
-21018.6
-26982.2
-32654.4
-37977.2
-42898.8
-47374.4
-51367
-54847.7
-57796.4
-60201.1
-62058.7
-63374.1
-64159.7
-64435.2
-64226.7
-63565.6
-62488.2
-61034.3
-59246.2
-57168.5
-54846
-52323.8
-49646
-46855.3
-43991.9
-41093.6
-38194.9
-35326.9
-32517.3
-29790
-27165.1
-24659.7
-22287.1
-20058
-17980.2
-16059.5
-14300.1
-12705
-11276.9
-10018.7
-8934.44
-8030.29
-7315.32
-6802.99
-6512.9
-6473.51
-6727.11
-7339.49
-8421.21
-10179.2
-13056.4
-18152.6
30771.2
25778.7
23114.9
21689.3
21069.1
21054.8
21539
22453.2
23746.4
25375.9
27302.6
29489.7
31900.9
34500.3
37251.7
40118.2
43061.7
46042.6
49019.6
51949.8
54788.4
57489
60004
62285.2
64284.3
65953.7
67247.1
68120.9
68534.8
68452.7
67844
66684.1
64955.6
62648.8
59762.3
56303.4
52288.5
47743
42701.4
37206.5
31309.2
25067.7
18546.4
11815
4947.13
-1980.93
-8891.72
-15708
-22354.2
-28757.9
-34850.8
-40570.6
-45861.4
-50674.9
-54971.3
-58719.3
-61897
-64491.5
-66498.9
-67924.4
-68781.2
-69090.2
-68879.1
-68181.6
-67036.5
-65486.4
-63576.7
-61355.1
-58869.7
-56169
-53300.4
-50309.5
-47239.7
-44131.6
-41022.2
-37945.2
-34930
-32002.5
-29184.6
-26494.2
-23946
-21551.2
-19318.3
-17253.3
-15360.7
-13643.3
-12103.8
-10744.9
-9570.26
-8585.65
-7799.78
-7225.69
-6882.56
-6798.42
-7015.1
-7597.93
-8656.96
-10398.6
-13265.2
-18356.4
31732.7
26751.4
24110.8
22721.3
22151.4
22202.8
22768.6
23780.7
25188
26947.2
29018.6
31364
33946
36727.2
39669.6
42734.4
45881.4
49068.7
52252.7
55387.5
58425.7
61317.7
64012.9
66459.9
68606.9
70403.2
71799.2
72748.2
73207
73136.9
72504.9
71284.6
69457.1
67011.7
63946.7
60269.5
55997.5
51157.4
45785.8
39928.2
33638.8
26979.6
20019.2
12832
5496.67
-1905.46
-9291.52
-16578.9
-23686.8
-30537.5
-37058.2
-43181.8
-48848.3
-54006.2
-58612.3
-62633.1
-66044.8
-68833.4
-70994.6
-72533.5
-73464.1
-73808.6
-73596.4
-72863.5
-71650.9
-70004.3
-67972.3
-65605.6
-62955.8
-60074.7
-57012.8
-53819.2
-50540.4
-47219.5
-43896.5
-40607.2
-37383.4
-34252.8
-31238.7
-28360.5
-25633.7
-23070.6
-20680
-18468.4
-16440.2
-14598.5
-12945.7
-11484.3
-10217.6
-9151.15
-8293.11
-7656.16
-7259.03
-7129.34
-7308.45
-7861.2
-8897.15
-10622.2
-13478.1
-18564
32691.6
27721.5
25104.1
23750.8
23231.3
23348.5
23996.2
25106.6
26628.4
28517.9
30734.5
33239
35992.7
38956.6
42091.1
45355.4
48707.3
52102.5
55495
58836.2
62075.8
65161.2
68038.7
70653.6
72950.8
74876.2
76377.1
77403.5
77909.3
77853.3
77199.9
75920.9
73995.9
71413.1
68170.5
64275.7
59746.7
54611.9
48909.8
42688.6
36005.7
28927
21525.4
13879.8
6074.03
-1805.38
-9670.21
-17432.5
-25005.9
-32307.9
-39260.4
-45791.9
-51838.4
-57344.6
-62264.4
-66561.7
-70211
-73197
-75514.9
-77169.9
-78176.7
-78558.6
-78346.9
-77579.5
-76300.4
-74557.9
-72403.6
-69891.7
-67077
-64014.7
-60758.7
-57361.3
-53872
-50337
-46798.7
-43295.6
-39861.6
-36526
-33314.1
-30246.3
-27339.4
-24606.3
-22056.5
-19696.7
-17531.7
-15564.4
-13797.1
-12232.1
-10872.4
-9723.16
-8792.15
-8091.64
-7639.92
-7464.16
-7605.28
-8127.64
-9140.26
-10848.5
-13693.6
-18774.2
33640.4
28681.5
26087.1
24769.8
24300.6
24483.3
25212.5
26420.7
28056.6
30076
32437.4
35100.6
38025.5
41171.8
44498
47961.5
51518.1
55121.2
58722.2
62270.1
65711.5
68991.1
72051.7
74835.4
77284
79339.9
80947.1
82052.8
82607.6
82567.5
81895
80559.5
78539.3
75821.5
72403.6
68293.4
63509.7
58082.3
52051.6
45468.5
38393.8
30896.9
23055.1
14952.1
6676.37
-1680.07
-10023.7
-18261.1
-26300.8
-34054.8
-41440.2
-48381
-54809
-60665.1
-65900.3
-70476
-74364.8
-77550.1
-80026.7
-81799.7
-82884.4
-83305.5
-83095.9
-82295.8
-80951.5
-79114.3
-76838.9
-74182.6
-71203.9
-67961
-64511.4
-60910.5
-57211
-53461.9
-49708.4
-45991.4
-42346.9
-38806.2
-35396.1
-32138.5
-29051.1
-26147.6
-23438.1
-20929.8
-18627.5
-16534.2
-14652.1
-12983.1
-11530.1
-10297.7
-9293.46
-8529.12
-8022.59
-7800.58
-7903.57
-8395.41
-9384.63
-11076
-13910.3
-18985.6
34571.5
29623.6
27051.9
25770.1
25350.4
25597.8
26407.6
27712.6
29461.3
31609
34113.6
36933.8
40028.2
43354.9
46871
50532
54291.5
58100.9
61909
65662.2
69304.4
72777.1
76020.2
78972.6
81572.6
83759.4
85473.9
86659.9
87265.3
87243.3
86554
85164.9
83052.5
80203.2
76613.8
72292.3
67258.2
61542.6
55187.9
48247.7
40785.7
32875.3
24597.9
16041.7
7300.26
-1529.29
-10348.1
-19057.4
-27560.3
-35763.6
-43579.8
-50928
-57736.1
-63941.3
-69491.3
-74345.2
-78473.5
-81858.7
-84494.7
-86386.8
-87550.9
-88012.8
-87807
-86975.9
-85568.4
-83638.5
-81244.1
-78445.7
-75304.9
-71883.6
-68242.4
-64440
-60532
-56570.6
-52603.6
-48674.2
-44820.7
-41076.2
-37469.2
-34022.8
-30755.9
-27682.9
-24814.6
-22158.5
-19719.5
-17500.7
-15504.2
-13731.7
-12185.7
-10870.5
-9793.31
-8965.38
-8404.21
-8136.12
-8201.11
-8662.56
-9628.47
-11303.1
-14126.6
-19196.7
35476.8
30539.7
27990.2
26743.1
26372
26682.7
27571.4
28971.1
30830.4
33104
35749
38723.1
41983.9
45487.8
49190.4
53045.4
57004.4
61016.7
65028.7
68984.3
72824.5
76487.9
79911.5
83030.9
85781.2
88098.4
89920.1
91187.1
91844.4
91842.5
91138.9
89699.5
87499
84522.9
80767.3
76240.4
70962.2
64965.3
58293.9
51004.1
43162.9
34847
26142.1
17140.8
7941.69
-1353.15
-10639.6
-19813.5
-28772.9
-37419.5
-45660.7
-53411.4
-60595.1
-67145.5
-73007.3
-78137
-82503.3
-86087.3
-88882.4
-90893.8
-92138
-92641.8
-92441.7
-91581.9
-90113.7
-88094
-85583.7
-82646.4
-79347.1
-75750.8
-71921.6
-67921.2
-63808.5
-59638.3
-55461.1
-51322.6
-47263.2
-43317.9
-39516.7
-35884.2
-32440.2
-29200
-26175
-23372.9
-20799
-18456.3
-16346.8
-14472
-12834.1
-11437.2
-10287.8
-9396.96
-8781.8
-8468.14
-8495.57
-8926.98
-9869.87
-11527.9
-14340.7
-19405.7
36348.5
31421.8
28893.7
27680.3
27356.2
27728.4
28693.6
30185.3
32151.9
34547.7
37329.2
40453
43875.4
47551.7
51435.8
55479.7
59633.1
63843.2
68054.2
72207.4
76241.2
80091.4
83691.9
86975.2
89873.5
92319.4
94247.6
95595.5
96305.5
96325.5
95610.6
94124.6
91841
88743.7
84828.8
80104.1
74590.6
68321.7
61343.7
53715.1
45505.7
36796
27675.3
18241
8596.13
-1152.2
-10894.7
-20522.3
-29927.5
-39007.3
-47664.3
-55809
-63360.8
-70249.8
-76417.7
-81818.5
-86419.1
-90199.2
-93151.7
-95281.6
-96606.1
-97153
-96960.2
-96074.2
-94548.5
-92442.7
-89820.7
-86749
-83296
-79529.9
-75517.8
-71324.9
-67012.6
-62638.9
-58256.8
-53914.3
-49653.8
-45512.5
-41521.6
-37707.1
-34090
-30686.3
-27507.9
-24563
-21857
-19393
-17172.9
-15197.9
-13470
-11992.8
-10772.7
-9820.3
-9152.21
-8793.9
-8784.52
-9186.51
-10106.8
-11748.7
-14551.1
-19610.9
37178.3
32261.6
29754.1
28572.9
28293.9
28725.1
29763.9
31343.9
33413.7
35927
38839.6
42107.4
45685.4
49527.7
53586.6
57812.7
62153.6
66554.7
70958
75302.3
79523.5
83554.8
87327.1
90770
93812.6
96384.5
98417.2
99845.5
100609
100652
99929
98400.8
96039.6
92828.3
88762.2
83849.4
78111.2
71582.3
64310.6
56356.9
47794
38705.5
29184.8
19333.2
9258.54
-927.405
-11110.4
-21176.3
-31012.9
-40512.1
-49572
-58098.6
-66007.6
-73225.6
-79691.3
-85356.3
-90185.4
-94157.4
-97264.2
-99510.9
-100915
-101506
-101322
-100413
-98833.3
-96645.9
-93917.3
-90717.1
-87116.6
-83187.2
-78999.3
-74620.7
-70116.2
-65546.1
-60966.1
-56426.4
-51971.6
-47640.5
-43466.1
-39475.5
-35690.7
-32128.6
-28801.6
-25718.3
-22884.3
-20302.6
-17975.1
-15902.9
-14087.7
-12532.7
-11244
-10231.7
-9512.23
-9110.57
-9065.45
-9438.88
-10337.3
-11963.4
-14755.8