/*--------------------------------*- C++ -*----------------------------------*\
  =========                 |
  \\      /  F ield         | OpenFOAM: The Open Source CFD Toolbox
   \\    /   O peration     | Website:  https://openfoam.org
    \\  /    A nd           | Version:  9
     \\/     M anipulation  |
\*---------------------------------------------------------------------------*/
FoamFile
{
    format      ascii;
    class       volScalarField;
    location    "0.05";
    object      gradTy;
}
// * * * * * * * * * * * * * * * * * * * * * * * * * * * * * * * * * * * * * //

dimensions      [0 -1 0 1 0 0 0];

internalField   nonuniform List<scalar> 
200000
(
4757.78
9243.36
11786.6
13428.1
14588.1
15466.6
16172.7
16772.4
17308.5
17810.5
18299.7
18791.2
19296.6
19824.4
20380.6
20970
21595.6
22259.3
22962
23703.7
24483.5
25299.7
26149.8
27030.6
27938.1
28867.7
29814
30771.2
31732.7
32691.6
33640.4
34571.5
35476.8
36348.5
37178.3
37958.4
38681.1
39339.1
39925.6
40434.5
40860.1
41198
41444.3
41596.4
41652.4
41611.6
41474.6
41242.7
40918.4
40505.3
40007.8
39431.1
38781.3
38065.1
37289.7
36462.8
35592.4
34686.4
33753.2
32800.7
31836.8
30869.1
29904.8
28950.6
28012.7
27096.7
26207.5
25349.4
24526.1
23740.5
22994.9
22291
21629.9
21012
20437.5
19905.7
19415.7
18966.4
18556.1
18182.9
17844.5
17538.6
17262.4
17013
16787
16580.5
16389.3
16207.8
16029.8
15846.8
15648.3
15419.8
15141.9
14786.6
14313
13657
12711.7
11279
8940.38
4657.05
2036.02
4992.78
7029.27
8473.4
9545.4
10380.8
11064.6
11652.8
12183.6
12684
13173.9
13667.8
14176.9
14709.1
15270.8
15866.2
16498.5
17169.4
17879.9
18630
19418.6
20244.1
21103.9
21994.8
22912.8
23853.1
24810.4
25778.7
26751.4
27721.5
28681.5
29623.6
30539.7
31421.8
32261.6
33051.1
33782.6
34448.7
35042.5
35557.8
35988.9
36331.3
36581
36735.4
36792.6
36752
36613.9
36379.9
36052.4
35635
35132.1
34549.2
33892.2
33168
32383.9
31547.7
30667.3
29750.9
28806.9
27843.4
26868.3
25889.3
24913.7
23948.3
22999.3
22072.4
21172.7
20304.4
19471.2
18676.1
17921.6
17209.2
16540.1
15914.7
15333.1
14794.8
14299
13844.2
13428.8
13051
12708.6
12399
12119.5
11867.3
11638.8
11430.4
11237.7
11055.4
10877.2
10695.1
10498.9
10275
10005.2
9663.94
9215.01
8604.56
7749.51
6516.32
4686.62
1934.23
1120.71
3064.01
4601.33
5797.2
6740.89
7507.68
8154.49
8723.29
9245.18
9743.37
10235.4
10734.7
11251.3
11793.1
12365.8
12973.6
13619.6
14305.5
15032
15799.1
16605.9
17450.4
18330.2
19241.9
20181.4
21143.8
22123.7
23114.9
24110.8
25104.1
26087.1
27051.9
27990.2
28893.7
29754.1
30563.1
31312.8
31995.7
32604.6
33133.1
33575.6
33927.3
34184.2
34343.5
34403.4
34363.1
34223
33984.6
33650.5
33224.3
32710.6
32114.7
31443.1
30702.5
29900.5
29044.9
28144.1
27206.4
26240.2
25254
24255.8
23253.5
22254.6
21266
20294.2
19345
18423.4
17534
16680.5
15866
15092.9
14363
13677.4
13036.6
12440.6
11888.9
11380.7
10914.6
10488.9
10101.7
9750.77
9433.6
9147.46
8889.33
8655.88
8443.36
8247.49
8063.22
7884.49
7703.82
7511.74
7296.02
7040.61
6724.03
6317.17
5780.09
5057.96
4077.51
2751.37
1016.77
725.128
2076.35
3241.26
4215.9
5030.42
5722.52
6327.18
6873.81
7386.21
7883.32
8380.13
8888.41
9417.37
9974.15
10564.2
11191.5
11858.8
12567.8
13319.3
14113.1
14948
15822.3
16733.2
17677.2
18650.2
19647.1
20662.3
21689.3
22721.3
23750.8
24769.8
25770.1
26743.1
27680.3
28572.9
29412.5
30190.8
30900
31532.7
32082.2
32542.7
32909.1
33177.4
33344.6
33408.8
33369.1
33226
32981.1
32636.8
32197
31666.4
31050.6
30356.1
29589.9
28760
27874.4
26941.7
25970.6
24969.9
23948.1
22913.8
21875.1
20839.7
19815
18807.4
17823.2
16867.5
15945
15059.8
14214.9
13412.9
12655.5
11944.1
11279.1
10660.6
10088
9560.49
9076.65
8634.8
8232.93
7868.74
7539.7
7243.03
6975.68
6734.33
6515.27
6314.31
6126.64
5946.56
5767.19
5580.05
5374.53
5137.19
4850.91
4493.9
4038.89
3453.04
2700.7
1753.72
617.865
519.66
1518.85
2427.03
3229.34
3933.65
4558.1
5123.57
5650.1
6155.39
6654.52
7159.99
7682.01
8228.79
8806.83
9421.17
10075.6
10772.6
11513.8
12300
13130.6
14004.7
14920.3
15874.4
16863.5
17883.1
18927.9
19992.1
21069.1
22151.4
23231.3
24300.6
25350.4
26372
27356.2
28293.9
29176.3
29994.7
30740.7
31406.7
31985.7
32471.5
32858.8
33143.2
33321.6
33392
33353.6
33206.6
32952.6
32594.4
32135.9
31582
30938.5
30212.2
29410.6
28541.8
27614.4
26637.3
25619.7
24570.8
23499.5
22414.9
21325.4
20239.2
19164
18106.6
17073.5
16070.2
15101.7
14172.1
13284.8
12442.3
11646.8
10899.3
10200.6
9550.59
8948.87
8394.44
7885.9
7421.49
6999.13
6616.44
6270.83
5959.44
5679.17
5426.68
5198.29
4989.94
4797.01
4614.21
4435.3
4252.85
4057.85
3839.43
3584.4
3277.17
2899.92
2434.02
1863.49
1182.51
407.838
400.838
1183.82
1920.08
2597.42
3216.83
3787.35
4321.76
4833.86
5336.9
5842.84
6362.1
6903.5
7474.34
8080.55
8726.77
9416.52
10152.2
10935.4
11766.5
12645.2
13570.2
14539.3
15549.6
16597.3
17677.5
18784.8
19912.9
21054.8
22202.8
23348.5
24483.3
25597.8
26682.7
27728.4
28725.1
29663.4
30534.2
31328.5
32038.3
32656
33175
33589.7
33895.4
34088.8
34167.7
34131
33979.1
33713.7
33337.6
32854.9
32270.7
31591.3
30823.7
29976
29056.7
28074.9
27040.1
25961.9
24850.1
23714.4
22564.1
21408.5
20256
19114.9
17992.5
16895.7
15830.3
14801.7
13814.2
12871.5
11976.4
11130.9
10336.5
9593.72
8902.72
8262.96
7673.42
7132.66
6638.82
6189.73
5782.91
5415.65
5085
4787.79
4520.62
4279.82
4061.41
3860.98
3673.59
3493.61
3314.56
3128.9
2927.93
2701.67
2439.12
2128.83
1760.35
1326.97
829.833
283.149
328.771
976.995
1600.82
2192.6
2752.11
3284.6
3798.62
4304.17
4811.48
5330.29
5869.41
6436.55
7038.29
7680.06
8366.2
9100.01
9883.82
10719
11605.9
12544.2
13532.3
14568
15648.1
16768.4
17923.9
19108.8
20316.4
21539
22768.6
23996.2
25212.5
26407.6
27571.4
28693.6
29763.9
30772
31708.1
32562.8
33327.2
33993.3
34554
35003.1
35335.6
35547.9
35637.5
35603.4
35445.7
35166.4
34768.2
34255.6
33634
32910
32091.4
31186.4
30204.4
29155
28048.4
26894.9
25705
24489.1
23257.2
22019.2
20784.3
19561.2
18357.9
17181.8
16039.1
14935.7
13876.2
12864.6
11903.8
10996.3
10143.3
9345.78
8603.71
7916.6
7283.38
6702.51
6172.05
5689.68
5252.81
4858.57
4503.89
4185.48
3899.85
3643.32
3411.93
3201.42
3007.14
2823.98
2646.26
2467.62
2281.07
2079.02
1853.61
1597.34
1304.19
971.33
601.292
203.865
285.081
850.645
1404.01
1941.34
2463.04
2973.15
3478.18
3986.02
4505.04
5043.51
5609.13
6208.82
6848.63
7533.63
8267.95
9054.75
9896.26
10793.8
11747.6
12757.1
13820.9
14936.3
16099.9
17307.3
18553.1
19831
21133.7
22453.2
23780.7
25106.6
26420.7
27712.6
28971.1
30185.3
31343.9
32436
33450.8
34378.1
35208.3
35932.8
36543.7
37034.3
37399.3
37634.5
37737.4
37706.5
37542.3
37246.3
36822
36273.7
35607.4
34830.3
33950.4
32976.9
31919.8
30789.4
29596.7
28352.9
27069.4
25757.2
24427.5
23090.6
21756.7
20435.3
19135
17863.6
16628.2
15435
14289
13194.6
12155.1
11173
10249.8
9386.53
8583.16
7839.21
7153.54
6524.53
5950.09
5427.76
4954.78
4528.11
4144.51
3800.52
3492.55
3216.81
2969.33
2745.93
2542.19
2353.35
2174.33
1999.69
1823.67
1640.32
1443.81
1228.93
991.894
731.281
449.138
151.595
260.031
778.139
1291.2
1798.22
2300.72
2802.64
3309.7
3828.77
4367.2
4932.38
5531.35
6170.55
6855.69
7591.64
8382.4
9231.07
10139.8
11109.9
12141.5
13234
14385.7
15593.8
16854.7
18163.5
19514.3
20900.5
22314.1
23746.4
25188
26628.4
28056.6
29461.3
30830.4
32151.9
33413.7
34603.7
35710.4
36722.6
37629.8
38422.5
39092.2
39631.6
40034.7
40297
40415.5
40388.8
40217.1
39902.2
39447.5
38858
38139.9
37300.9
36349.9
35296.8
34152.1
32927.5
31634.6
30285.7
28893.1
27468.8
26024.9
24572.9
23123.7
21687.6
20274.1
18891.8
17548.3
16250.3
15003.5
13812.6
12681.3
11612.2
10607.1
9667.11
8792.24
7981.99
7235.15
6549.98
5924.24
5355.29
4840.17
4375.62
3958.2
3584.26
3250.01
2951.54
2684.8
2445.61
2229.63
2032.38
1849.18
1675.19
1505.48
1335.15
1159.62
974.918
778.244
568.504
346.807
116.63
247.889
743.32
1238.19
1733.56
2232.12
2738.16
3257.32
3796.09
4361.4
4960.24
5599.32
6284.86
7022.43
7816.84
8672.07
9591.21
10576.4
11629
12749
13935.8
15187.3
16500.8
17872.1
19296
20766.3
22275.5
23815.2
25375.9
26947.2
28517.9
30076
31609
33104
34547.7
35927
37228.7
38440.2
39549.1
40544.2
41414.9
42151.8
42746.9
43193.8
43487.2
43623.9
43602.2
43422.4
43086.2
42597.4
41961.2
41184.4
40275.4
39243.7
38100.1
36856.2
35524.4
34117.7
32649.2
31132.5
29580.8
28007.2
26424.1
24843.7
23277.1
21734.8
20226.2
18759.6
17342.4
15980.9
14680.1
13444.2
12276.1
11177.8
10150.4
9194.12
8308.36
7491.86
6742.71
6058.53
5436.46
4873.31
4365.57
3909.55
3501.35
3136.96
2812.28
2523.12
2265.21
2034.23
1825.78
1635.42
1458.68
1291.12
1128.49
966.832
802.813
633.981
459.09
278.325
93.2951
244.999
735.701
1228.84
1727
2233.92
2754.49
3294.58
3860.75
4459.89
5098.92
5784.51
6522.88
7319.62
8179.61
9106.89
10104.6
11175.1
12319.4
13537.8
14829.5
16192.2
17622.9
19117.2
20669.3
22272.5
23918.8
25598.9
27302.6
29018.6
30734.5
32437.4
34113.6
35749
37329.2
38839.6
40266.1
41594.6
42811.8
43905.1
44863
45675.2
46333
46828.9
47157.4
47314.8
47299.2
47110.7
46751.2
46224.7
45536.8
44694.9
43708.1
42586.7
41342.5
39988.2
38537.2
37003.7
35402.2
33747.3
32053.5
30335.2
28606.2
26879.5
25167.4
23481.5
21831.9
20228
18677.9
17188.3
15764.9
14412.3
13133.7
11931.3
10806.5
9759.29
8789.25
7894.97
7074.41
6324.97
5643.57
5026.75
4470.73
3971.51
3524.93
3126.7
2772.46
2457.81
2178.33
1929.62
1707.24
1506.85
1324.12
1154.87
995.131
841.272
690.17
539.391
387.367
233.481
78.0288
248.884
748.094
1251.87
1763.99
2289.11
2832.78
3401.35
4001.67
4640.85
5326
6063.96
6861.11
7723.22
8655.34
9661.66
10745.5
11909.2
13153.9
14479.9
15886.2
17370.5
18929.4
20558.1
22250.5
23999.2
25795.5
27629.4
29489.7
31364
33239
35100.6
36933.8
38723.1
40453
42107.4
43670.8
45127.9
46463.9
47665.3
48719.2
49614.4
50341.1
50891.3
51258.8
51439.4
51431
51233.4
50848.9
50281.5
49537.5
48624.7
47553
46333.8
44979.8
43504.7
41923.3
40251.2
38504
36697.9
34848.6
32971.9
31082.9
29195.9
27324.4
25481.1
23677.1
21922.7
20226.7
18596.7
17038.9
15558.2
14158.4
12841.9
11610
10463.1
9400.61
8420.95
7521.99
6700.91
5954.36
5278.59
4669.51
4122.8
3633.96
3198.38
2811.41
2468.38
2164.65
1895.62
1656.76
1443.64
1251.95
1077.57
916.604
765.479
621.066
480.778
342.664
205.449
68.4744
257.784
775.344
1299.09
1833.75
2384.83
2958.58
3561.88
4202.08
4886.69
5623.16
6418.67
7279.89
8212.9
9222.98
10314.6
11491.2
12755.2
14108.1
15549.9
17079.6
18694.8
20391.7
22165.2
24008.7
25914.2
27872.2
29871.8
31900.9
33946
35992.7
38025.5
40028.2
41983.9
43875.4
45685.4
47396.9
48993
50457.8
51776.2
52934.2
53919.5
54721.3
55330.7
55740.8
55947.1
55947
55740.4
55329.4
54718.6
53914.5
52925.8
51763.1
50438.8
48966.6
47361.6
45639.9
43818.4
41914.3
39945.1
37928.2
35880.7
33819.1
31759.1
29715.6
27702.3
25731.6
23814.6
21961.1
20179.4
18476.4
16857.4
15326.6
13886.6
12539.1
11284.4
10121.9
9049.9
8066.14
7167.55
6350.52
5610.95
4944.42
4346.25
3811.58
3335.43
2912.81
2538.73
2208.26
1916.54
1658.84
1430.57
1227.3
1044.82
879.151
726.637
583.999
448.404
317.516
189.51
63.0151
270.395
813.616
1364.32
1928.08
2511.14
3120.47
3763.57
4448.37
5182.89
5975.08
6832.53
7762.35
8770.97
9864.03
11046.2
12321.3
13692
15159.5
16724.2
18384.9
20139.1
21982.6
23909.9
25913.9
27986
30115.8
32291.6
34500.3
36727.2
38956.6
41171.8
43354.9
45487.8
47551.7
49527.7
51397.2
53141.8
54744.2
56187.7
57457.2
58539
59421.4
60094.5
60550.9
60785.2
60794.7
60579.2
60140.9
59484.6
58617.3
57548.4
56289.5
54853.8
53256.4
51513.6
49643
47662.8
45592
43449.4
41254.2
39025
36779.7
34535.6
32308.9
30114.6
27966.2
25876.1
23854.7
21911.3
20053.4
18286.9
16616.4
15044.9
13574
12204.2
10935
9764.47
8690.21
7708.88
6816.57
6008.86
5280.95
4627.77
4044.05
3524.44
3063.55
2656.01
2296.56
1980.03
1701.41
1455.87
1238.76
1045.66
872.444
715.24
570.544
435.23
306.589
182.325
60.5132
285.717
859.953
1442.79
2040.51
2660.12
3309.24
3996.08
4729.19
5517.21
6368.62
7291.58
8293.66
9381.73
10561.8
11839
13217.4
14699.6
16287.3
17980.8
19778.7
21678.4
23675.6
25764.2
27936.6
30183.4
32493.6
34854.4
37251.7
39669.6
42091.1
44498
46871
49190.4
51435.8
53586.6
55622.7
57524
59271.6
60847.3
62234.7
63418.9
64386.8
65127.9
65633.7
65898.4
65919.1
65695.1
65229
64525.7
63592.8
62440.5
61081.1
59529.1
57800.6
55913.6
53886.8
51740.3
49494.5
47170
44787.6
42367.4
39929.1
37491.5
35072.1
32687.4
30352.1
28079.7
25881.7
23768
21747
19825.2
18007.5
16297.2
14696.3
13205.3
11823.6
10549.2
9379.46
8310.87
7339.15
6459.53
5666.83
4955.54
4320
3754.4
3252.95
2809.87
2419.5
2076.32
1774.99
1510.35
1277.49
1071.73
888.664
724.174
574.468
436.105
306.015
181.491
60.1524
302.958
912.002
1530.63
2165.83
2825.24
3517.24
4250.71
5034.87
5879.02
6792.28
7783.39
8860.46
10030.9
11301.1
12676.6
14161.6
15759.3
17471.4
19298
21238
23288.4
25444.7
27700.3
30047.2
32475.2
34972.4
37525.2
40118.2
42734.4
45355.4
47961.5
50532
53045.4
55479.7
57812.7
60022.3
62087
63986.2
65700.2
67210.9
68502.3
69560.2
70372.8
70931.1
71228.6
71261.8
71030.2
70536.3
69785.2
68785.2
67547.1
66084.3
64412.2
62548.4
60512.1
58323.8
56004.9
53577.7
51064.5
48487.8
45869.3
43230.6
40591.9
37972.3
35389.6
32860
30398
28016.1
25725.3
23534.5
21450.9
19479.9
17625.2
15888.8
14271.5
12772.4
11389.7
10120.5
8960.91
7906.36
6951.72
6091.4
5319.45
4629.76
4016.08
3472.16
2991.79
2568.89
2197.54
1872.01
1586.79
1336.64
1116.57
921.851
748.068
591.113
447.215
312.954
185.252
61.3387
321.464
967.82
1624.67
2299.63
3001.04
3737.93
4519.9
5356.9
6258.9
7235.7
8296.66
9450.47
10705.1
12067.4
13543.2
15137.3
16853
18692
20654.8
22740
24944.6
27263.6
29690.3
32215.8
34829.3
37518.3
40267.9
43061.7
45881.4
48707.3
51518.1
54291.5
57004.4
59633.1
62153.6
64542.2
66775.5
68831.2
70688.1
72326.6
73729.2
74880.6
75768
76381.4
76713.8
76761.2
76523.1
76001.7
75202.8
74135.1
72810
71241.9
69447.5
67445.6
65256.8
62903.2
60407.9
57794.9
55088.3
52312.2
49490.4
46645.8
43800.6
40975.3
38189.2
35459.7
32802.6
30231.6
27758.5
25392.9
23142.8
21013.9
19010.4
17134.5
15386.9
13767
12272.6
10900.8
9647.33
8507.33
7475.28
6545.16
5710.58
4964.96
4301.58
3713.71
3194.7
2738.01
2337.28
1986.39
1679.44
1410.81
1175.15
967.411
782.827
616.96
465.703
325.293
192.309
63.6335
340.679
1025.75
1722.16
2438.15
3182.7
3965.52
4796.95
5687.63
6648.26
7689.33
8820.83
10052.1
11391.6
12846.8
14423.9
16128
17962.6
19929.8
22030
24261.9
26622.2
29105.8
31705.4
34411.6
37213.1
40096.2
43045.2
46042.6
49068.7
52102.5
55121.2
58100.9
61016.7
63843.2
66554.7
69125.7
71531
73746.5
75749.5
77518.9
79035.7
80283.4
81248
81918.8
82288
82351.4
82108
81560.4
80714.3
79579.1
78167
76493.3
74575.8
72434.6
70091.8
67571.2
64897.5
62096.4
59193.8
56215.7
53187.6
50134.2
47079.3
44045.1
41052.2
38119.7
35264.3
32500.9
29842.2
27298.8
24879.1
22589.5
20434.3
18416.2
16536
14792.8
13184.7
11708.2
10359
9131.78
8020.74
7019.37
6120.84
5318.08
4603.9
3971.08
3412.49
2921.13
2490.2
2113.13
1783.62
1495.65
1243.5
1021.75
825.281
649.313
489.397
341.437
201.686
66.7077
360.114
1084.32
1820.68
2578
3365.9
4194.79
5075.7
6019.98
7039.06
8144.13
9345.85
10654.2
12078.1
13625.7
15303.6
17117.1
19070.2
21165.1
23402.3
25780.5
28296.2
30944
33716.3
36603.2
39592.4
42669.7
45818.4
49019.6
52252.7
55495
58722.2
61909
65028.7
68054.2
70958
73712.7
76291.4
78668.4
80819.2
82721.2
84354
85699.7
86743.4
87473.4
87881.3
87962.3
87715.3
87142.8
86251.1
85049.7
83551.8
81773.4
79733.6
77453.9
74957.7
72270.4
69418.5
66429.3
63330.7
60150.3
56915.5
53652.8
50387.5
47143.6
43943.2
40806.6
37751.9
34795.1
31949.9
29227.6
26637.2
24185.8
21878
19716.7
17702.8
15835.5
14112.6
12530.6
11084.9
9769.76
8579.02
7505.75
6542.66
5682.2
4916.69
4238.44
3639.8
3113.32
2651.73
2248.01
1895.45
1587.62
1318.4
1081.99
872.925
686.06
516.61
360.154
212.632
70.3094
379.321
1142.19
1917.98
2716.06
3546.67
4420.85
5350.34
6347.22
7423.62
8591.42
9861.96
11245.8
12752.6
14390.7
16167.4
18088.4
20157.8
22378.2
24750
27272
29940.7
32750.2
35692.7
38757.6
41932.2
45201.2
48547.1
51949.8
55387.5
58836.2
62270.1
65662.2
68984.3
72207.4
75302.3
78239.8
80991.4
83529.5
85828.1
87862.9
89612
91056.6
92180.3
92970.8
93418.8
93519.1
93270.4
92675.3
91740
90474.8
88893.5
87013.1
84853.7
82438
79791.1
76939.7
73912.1
70737.4
67445.1
64064.8
60625.5
57155.6
53682.1
50230.4
46824.3
43485.3
40232.9
37084.1
34053.6
31153.5
28393.6
25781.4
23321.8
21018
18871.1
16880.2
15043.1
13356
11814.1
10411.4
9141.19
7996.24
6968.77
6050.75
5234.02
4510.39
3871.74
3310.12
2817.82
2387.37
2011.61
1683.72
1397.17
1145.79
923.728
725.508
546.004
380.473
224.558
74.241
397.884
1198.11
2011.99
2849.42
3721.2
4639.05
5615.35
6662.89
7794.5
9022.72
10359.6
11816.2
13402.8
15128.3
17000.4
19025.2
21207.1
23548.8
26051
28712.3
31529.2
34495.6
37603.2
40841.1
44195.9
47651.4
51189.2
54788.4
58425.7
62075.8
65711.5
69304.4
72824.5
76241.2
79523.5
82640.6
85562.2
88259
90703.3
92869.4
94734.1
96276.9
97480.9
98332.4
98821.7
98943
98694.7
98079.4
97103.7
95778.2
94117.2
92138.9
89864.2
87317.2
84524.4
81514
78315.8
74960.8
71480
67905
64266.4
60594.4
56917.5
53262.8
49655.5
46118.6
42672.7
39336
36124
33049.7
30123.6
27353.5
24745
22301.4
20023.8
17911.6
15962.3
14172
12535.5
11046.6
9698.32
8482.85
7392.02
6417.34
5550.16
4781.81
4103.71
3507.43
2984.8
2527.9
2129.17
1781.34
1477.51
1211.13
975.99
766.255
576.475
401.602
236.985
78.3425
415.404
1250.89
2100.71
2975.25
3885.88
4844.9
5865.36
6960.69
8144.39
9429.67
10829.2
12354.6
14016.8
15825.1
17787.6
19910.8
22199.5
24656.5
27282.6
30076.6
33034.6
36150.6
39415.9
42819
46345.9
49979.9
53701.6
57489
61317.7
65161.2
68991.1
72777.1
76487.9
80091.4
83554.8
86845.6
89931.8
92782.6
95368.7
97662.9
99640.6
101280
102563
103476
104007
104151
103905
103273
102261
100879
99144.1
97073.5
94689.9
92018.4
89086.8
85924.8
82563.9
79036.4
75375.3
71613.7
67784
63917.8
60045.5
56195.7
52394.9
48667.4
45035.1
41517.1
38130.1
34887.7
31801.1
28878.7
26126.3
23547.5
21143.6
18914
16856
14965.7
13237.7
11665.4
10241.4
8957.56
7805.28
6775.63
5859.5
5047.75
4331.33
3701.36
3149.22
2666.58
2245.44
1878.14
1557.4
1276.28
1028.24
807.098
607.091
422.87
249.512
82.4796
431.502
1299.39
2182.22
3090.86
4037.18
5034.06
6095.12
7234.45
8466.15
9804.05
11261.4
12850.4
14582.5
16467.5
18513.8
20728.4
23116.3
25680.6
28422.1
31339.7
34429.5
37685.3
41097.9
44655.7
48343.9
52145.3
56039.6
60004
64012.9
68038.7
72051.7
76020.2
79911.5
83691.9
87327.1
90783
94026.1
97023.8
99745.6
102163
104249
105982
107343
108315
108889
109057
108817
108171
107126
105695
103892
101736
99252.2
96465.1
93404.3
90100.9
86587.6
82898.6
79068.3
75131.2
71121.6
67072.7
63016.2
58982.1
54998.5
51090.8
47282.2
43592.7
40039.9
36638.2
33399.3
30332.3
27443.3
24736.1
22212.2
19870.9
17709.7
15724.3
13909.1
12257.3
10761.2
9412.23
8201.38
7119.31
6156.48
5303.3
4550.29
3888.14
3307.8
2800.53
2357.92
1971.95
1634.96
1339.66
1079.16
846.973
637.027
443.693
261.788
86.5358
445.807
1342.48
2254.66
3193.62
4171.69
5202.27
6299.54
7478.13
8752.74
10137.8
11646.9
13293.1
15088.1
17042.1
19164.1
21461.3
23938.9
26600.4
29446.6
32476.5
35686.2
39069.2
42616.2
46315.2
50151.1
54105.8
58158.4
62285.2
66459.9
70653.6
74835.4
78972.6
83030.9
86975.2
90770
94379.6
97768.9
100904
103753
106286
108475
110298
111732
112763
113379
113572
113340
112684
111614
110139
108276
106045
103470
100579
97400.5
93968.3
90316.2
86479.4
82493.9
78396
74221
70003.8
65777.5
61573.5
57421
53346.8
49374.9
45526.6
41820.1
38270.6
34890.5
31689.1
28673.1
25846.6
23211
20765.8
18508.3
16434.3
14537.8
12811.9
11248.4
9838.64
8573.09
7442.04
6435.54
5543.62
4756.38
4064.1
3457.34
2926.98
2464.24
2060.73
1708.45
1399.79
1127.54
884.908
665.54
463.545
273.498
90.4066
457.967
1379.12
2316.25
3281
4286.13
5345.46
6473.67
7685.89
8997.34
10422.9
11976.8
13672.4
15521.8
17535.8
19723.7
22092.8
24648.9
27395.3
30333.4
33461.9
36777
40272.2
43937.9
47761.9
51728.5
55819.3
60012.7
64284.3
68606.9
72950.8
77284
81572.6
85781.2
89873.5
93812.6
97561.5
101084
104345
107310
109949
112234
114139
115644
116731
117387
117606
117385
116725
115634
114123
112210
109914
107261
104279
100998
97452.3
93677.3
89709.6
85586.4
81345.1
77022.6
72655
68276.6
63920.2
59616.2
55392.2
51273.5
47282
43436.9
39754
36246.2
32923.4
29792.5
26857.7
24120.9
21581.4
19236.6
17082
15111.7
13318.4
11693.7
10228.5
8913.14
7737.45
6691.15
5763.88
4945.39
4225.6
3594.71
3043.23
2562.07
2142.51
1776.22
1455.3
1172.25
919.998
691.938
481.937
284.354
93.996
467.641
1408.27
2365.27
3350.59
4377.32
5459.68
6612.75
7852.09
9193.35
10651.9
12242.2
13978.3
15872.4
17935.8
20178.1
22606.9
25228.1
28045.4
31060.2
34271.4
37675.1
41264.7
45030.7
48960.4
53038
57244.6
61558.2
65953.7
70403.2
74876.2
79339.9
83759.4
88098.4
92319.4
96384.5
100255
103895
107266
110335
113070
115440
117421
118989
120128
120825
121071
120863
120203
119098
117561
115608
113260
110543
107485
104118
100477
96598.7
92519.9
88279.3
83915.5
79466.6
74969.7
70460.5
65972.6
61537.5
57183.9
52937.8
48822
44856.3
41057.2
37438
34009.1
30777.8
27748.4
24922.9
22300.8
19879.3
17654
15618.8
13766.2
12087.6
10573.6
9214.3
7999.24
6917.8
5959.32
5113.22
4369.1
3716.85
3146.69
2649.21
2215.4
1836.68
1504.87
1212.21
951.388
715.572
498.415
294.085
97.214
474.513
1428.98
2400.12
3400.11
4442.31
5541.24
6712.31
7971.42
9334.57
10817.4
12435
14201.2
16129.1
18229.9
20513.6
22988
25659.4
28531.5
31605.8
34881.3
38354.4
42018.3
45863.4
49877
54042.9
58342
62751.9
67247.1
71799.2
76377.1
80947.1
85473.9
89920.1
94247.6
98417.2
102390
106128
109593
112750
115566
118011
120057
121683
122870
123604
123877
123685
123031
121920
120366
118385
115999
113234
110118
106685
102970
99009
94841.7
90507.2
86044.9
81493.9
76892.3
72276.6
67681.4
63139
58679
54328.1
50109.8
46044.5
42149.2
38437.8
34920.8
31605.8
28497.6
25598.1
22906.9
20421.3
18136.8
16047.1
14144.7
12420.8
10865.8
9469.46
8221.19
7110.11
6125.27
5255.83
4491.13
3820.8
3234.8
2723.48
2277.59
1888.31
1547.24
1246.39
978.268
735.827
512.548
302.434
99.9762
478.29
1440.37
2419.32
3427.47
4478.36
5586.72
6768.21
8038.95
9415.21
10912.9
12547.2
14332.5
16281.8
18406.7
20717.4
23221.9
25926.6
28835.4
31950.1
35269.7
38790.6
42506.2
46406.7
50479.4
54708.2
59073.7
63553.2
68120.9
72748.2
77403.5
82052.8
86659.9
91187.1
95595.5
99845.5
103897
107712
111251
114478
117360
119866
121968
123643
124872
125641
125941
125768
125124
124016
122456
120461
118052
115256
112103
108624
104857
100839
96608.9
92206.8
87673.1
83047.4
78368.6
73674
68998.8
64376.1
59836.1
55406.1
51110.1
46968.9
43000.2
39218.1
35633.4
32254.1
29085
26128.2
23383.4
20847.9
18517.3
16385.1
14443.7
12684.3
11097.1
9671.7
8397.3
7262.85
6257.2
5369.32
4588.34
3903.69
3305.13
2782.83
2327.34
1929.66
1581.21
1273.84
999.871
752.122
523.928
309.163
102.203
478.709
1441.65
2421.54
3430.78
4483
5593.06
6776.72
8050.26
9430.07
10932.2
12572.1
14364.1
16321.4
18455.9
20777.8
23295.4
26015
28941
32075
35416.3
38961.3
42703.6
46633.6
50738.4
55002
59404.9
63924.5
68534.8
73207
77909.3
82607.6
87265.3
91844.4
96305.5
100609
104714
108581
112172
115450
118380
120932
123077
124791
126056
126856
127183
127032
126404
125307
123753
121757
119343
116536
113366
109866
106073
102024
97758.9
93318.4
88742.9
84072.9
79347.5
74604.5
69879.7
65206.6
60615.8
56135.1
51788.9
47598.5
43581.6
39752.8
36123.3
32701
29491
26495.6
23714.6
21145.2
18783
16621.7
14653.5
12869.6
11260.1
9814.46
8521.86
7371.07
6350.85
5450.01
4657.57
3962.82
3355.39
2825.31
2363.02
1959.36
1605.65
1293.62
1015.48
763.916
532.177
314.045
103.82
475.545
1432.14
2405.64
3408.42
4454.13
5557.6
6734.63
8001.52
9374.67
10870.2
12503.5
14289
16240.1
18368.5
20684.6
23196.9
25911.8
28833.6
31964.2
35303.1
38846.8
42589
46520.2
50627.8
54895.7
59304.8
63832.4
68452.7
73136.9
77853.3
82567.5
87243.3
91842.5
96325.5
100652
104782
108676
112295
115601
118560
121141
123315
125059
126351
127179
127531
127404
126799
125722
124185
122205
119803
117005
113842
110346
106554
102503
98234.1
93786.7
89202.1
84520.6
79781.8
75023.7
70282.3
65591.3
60981.7
56481.4
52115.1
47904.3
43867.1
40018
36368.5
32926.7
29697.8
26684.3
23885.9
21300.1
18922.5
16746.7
14765
12968.7
11347.7
9891.64
8589.54
7430.17
6402.23
5494.49
4695.9
3995.7
3383.45
2849.13
2383.1
1976.17
1619.55
1304.92
1024.43
770.71
536.946
316.876
104.758
468.613
1411.29
2370.69
3359.08
4390
5478.18
6639.31
7889.58
9245.3
10722.5
12336.4
14101.6
16031.2
18137
20429.5
22917
25606.1
28501.2
31604.5
34915.3
38430.5
42143.9
46046.4
50125.4
54365.3
58747.1
63248.5
67844
72504.9
77199.9
81895
86554
91138.9
95610.6
99929
104054
107946
111566
114876
117844
120435
122624
124384
125696
126546
126922
126822
126245
125197
123690
121741
119371
116605
113473
110008
106246
102225
97983.6
93563.1
89003.8
84346.1
79629.5
74891.9
70169.4
65495.5
60901.4
56414.9
52060.9
47860.9
43833
39992
36349.3
32913.3
29689.3
26679.6
23884.4
21301
18925.2
16750.8
14770.2
12974.4
11353.7
9897.78
8595.6
7436.02
6407.77
5499.67
4700.68
4000.06
3387.4
2852.67
2386.25
1978.94
1621.96
1306.98
1026.13
772.056
537.924
317.471
104.958
457.777
1378.68
2315.99
3281.77
4289.34
5353.2
6488.8
7712.12
9039.2
10485.8
12067.2
13797.4
15689.7
17755.8
20005.8
22448.2
25089.7
27934.6
30985.2
34241.1
37699.3
41354
45196.2
49213.9
53391.7
57711.1
62150.2
66684.1
71284.6
75920.9
80559.5
85164.9
89699.5
94124.6
98400.8
102488
106348
109941
113231
116183
118766
120952
122717
124039
124905
125305
125232
124689
123680
122217
120315
117996
115285
112210
108804
105103
101143
96964.3
92606
88108.6
83511.9
78855.1
74175.6
69509.3
64889.6
60347.1
55909.8
51602.3
47446.1
43459.1
39656.3
36049
32645.6
29451.5
26469.2
23698.8
21138
18782.5
16626.3
14661.9
12880.6
11272.8
9828.12
8535.9
7385.03
6364.39
5462.9
4669.64
3973.98
3365.59
2834.54
2371.29
1966.7
1612.08
1299.14
1020.07
767.568
534.839
315.669
104.366
442.954
1334.06
2241.13
3175.9
4151.35
5181.65
6281.88
7467.64
8754.62
10158.3
11693.3
13373.8
15212.5
17221
19409.3
21785.7
24356.9
27127.3
30099.3
33272.6
36644.4
40209.3
43958.7
47881
51961.4
56182
60521.5
64955.6
69457.1
73995.9
78539.3
83052.5
87499
91841
96039.6
100056
103851
107388
110630
113544
116098
118264
120019
121342
122218
122637
122595
122091
121130
119723
117886
115639
113005
110014
106697
103088
99223.6
95142.3
90883.1
86485.4
81988.3
77430.3
72848.1
68277
63749.8
59296.9
54945.6
50720.4
46642.3
42729.3
38996
35453.9
32111.1
28973.2
26042.8
23320.1
20802.8
18486.9
16366.5
14434.5
12682.2
11100.4
9678.84
8407.09
7274.31
6269.57
5382.01
4600.92
3915.85
3316.66
2793.59
2337.25
1938.66
1589.25
1280.88
1005.84
756.931
527.471
311.34
102.938
424.117
1277.35
2145.95
3041.25
3975.76
4963.19
6018.12
7155.63
8390.92
9738.91
11214
12829.6
14598.2
16531.1
18638.1
20927.4
23405.4
26076.6
28943.4
32005.8
35261.4
38704.9
42328.2
46120.4
50067.3
54151.8
58353.4
62648.8
67011.7
71413.1
75821.5
80203.2
84522.9
88743.7
92828.3
96738.6
100437
103888
107054
109904
112407
114535
116266
117578
118458
118895
118884
118424
117521
116184
114428
112273
109741
106860
103661
100176
96441.8
92494.3
88371.8
84112.5
79754.6
75335.3
70890.5
66454.6
62059.6
57735.1
53507.7
49401.5
45437.1
41632
38000.6
34554.3
31301.1
28246.6
25393.3
22741.6
20289.6
18033.2
15967
14083.9
12375.7
10833.3
9447.09
8206.71
7101.7
6121.45
5255.4
4493.15
3824.51
3239.62
2728.98
2283.43
1894.22
1553
1251.8
983.114
739.905
515.654
304.385
100.642
401.296
1208.65
2030.63
2878.05
3762.87
4698.18
5697.93
6776.56
7948.62
9228.39
10629.6
12165.4
13847.5
15686.9
17693
19873.8
22235.6
24782.9
27518
30441.3
33550.4
36840.7
40304.7
43931.8
47709
51619.8
55644.9
59762.3
63946.7
68170.5
72403.6
76613.8
80767.3
84828.8
88762.2
92531.2
96099.7
99432.4
102495
105256
107686
109757
111448
112739
113615
114066
114087
113677
112840
111586
109929
107885
105479
102736
99684
96356
92785.6
89008.2
85060.3
80978.5
76799.7
72559.6
68292.9
64032.7
59809.8
55653
51588
47638.1
43823.2
40160.5
36663.9
33344.5
30210.3
27266.7
24516.3
21959.6
19594.8
17418.3
15424.7
13607.5
11958.7
10469.7
9131.16
7933.25
6865.89
5918.89
5082.09
4345.46
3699.22
3133.85
2640.17
2209.38
1833.01
1503
1211.65
951.696
716.342
499.281
294.742
97.4578
374.587
1128.23
1895.64
2686.97
3513.53
4387.68
5322.6
6331.93
7429.45
8628.67
9942.63
11383.6
12963.1
14691.3
16577.2
18628.6
20851.6
23250.5
25827.8
28583.9
31517
34622.6
37894
41321.6
44892.9
48592.9
52403.3
56303.4
60269.5
64275.7
68293.4
72292.3
76240.4
80104.1
83849.4
87441.7
90846.5
94030.3
96960.6
99606.7
101941
103936
105572
106830
107695
108156
108210
107854
107092
105933
104390
102479
100221
97641.7
94767.1
91627.7
88255.6
84684.4
80948.7
77083.4
73123.3
69102.6
65054.4
61010.2
56999.4
53049.5
49185.3
45428.9
41799.6
38313.7
34984.8
31823.5
28837.7
26032.6
23410.9
20973.1
18717.8
16641.4
14739.1
13004.7
11430.7
10008.9
8730.53
7586.25
6566.47
5661.53
4861.75
4157.59
3539.74
2999.12
2527
2114.95
1754.9
1439.14
1160.33
911.513
686.183
478.313
282.387
93.3766
344.144
1036.57
1741.76
2469.13
3229.21
4033.49
4894.28
5824.3
6836.37
7943.14
9156.78
10488.8
11949.9
13549.8
15296.9
17198.6
19260.8
21487.6
23881.6
26443.4
29171.4
32061.8
35108.4
38302.6
41633
45085.7
48643.9
52288.5
55997.5
59746.7
63509.7
67258.2
70962.2
74590.6
78111.2
81491.7
84699.8
87703.9
90473.3
92979.1
95194.7
97095.8
98661.3
99873.7
100719
101187
101273
100975
100297
99244.8
97831.4
96072
93985.7
91595.3
88926.3
86006.5
82866
79536.2
76049.5
72438.5
68736.1
64974.3
61184.2
57395.5
53636.1
49931.7
46306
42779.7
39371.2
36096.1
32967.3
29994.9
27186.4
24547.1
22079.5
19784.3
17660.2
15704.1
13911.5
12276.7
10792.7
9451.86
8246
7166.37
6204.01
5349.84
4594.78
3929.87
3346.35
2835.68
2389.64
2000.28
1660.01
1361.54
1097.93
862.625
649.473
452.779
267.336
88.4041
310.187
934.33
1570.09
2226.08
2911.91
3638.14
4416.02
5257.24
6173.57
7176.62
8277.59
9487.09
10815
12270.2
13860.8
15593.5
17473.9
19506.1
21692.5
24033.9
26529.1
29175
31966
34894.5
37950.3
41120.8
44390.9
47743
51157.4
54611.9
58082.3
61542.6
64965.3
68321.7
71582.3
74717.1
77696.3
80490.6
83071.4
85412
87487.3
89274.8
90754.5
91909.8
92727.5
93198.1
93316
93079.5
92491.2
91557.4
90288.6
88698.6
86805
84628.4
82192.1
79521.7
76644.7
73590
70387.5
67067.5
63660.1
60195.1
56701.4
53206.4
49736.2
46314.6
42963.8
39703.1
36549.7
33518.3
30620.9
27867.1
25264.2
22817
20528.2
18398.5
16426.9
14610.7
12945.7