/*--------------------------------*- C++ -*----------------------------------*\
  =========                 |
  \\      /  F ield         | OpenFOAM: The Open Source CFD Toolbox
   \\    /   O peration     | Website:  https://openfoam.org
    \\  /    A nd           | Version:  9
     \\/     M anipulation  |
\*---------------------------------------------------------------------------*/
FoamFile
{
    format      ascii;
    class       volScalarField;
    location    "0.05";
    object      gradTz;
}
// * * * * * * * * * * * * * * * * * * * * * * * * * * * * * * * * * * * * * //

dimensions      [0 -1 0 1 0 0 0];

internalField   nonuniform List<scalar> 
200000
(
-6343.45
-6866.26
-7020.17
-7076.58
-7101.74
-7114.96
-7122.93
-7128.35
-7132.48
-7135.95
-7139.12
-7142.19
-7145.31
-7148.55
-7151.98
-7155.63
-7159.52
-7163.68
-7168.11
-7172.81
-7177.78
-7183.02
-7188.5
-7194.21
-7200.13
-7206.22
-7212.46
-7218.81
-7225.22
-7231.65
-7238.05
-7244.37
-7250.56
-7256.56
-7262.32
-7267.78
-7272.88
-7277.59
-7281.84
-7285.59
-7288.79
-7291.43
-7293.46
-7294.86
-7295.62
-7295.72
-7295.17
-7293.97
-7292.13
-7289.67
-7286.63
-7283.03
-7278.91
-7274.33
-7269.31
-7263.92
-7258.22
-7252.24
-7246.06
-7239.73
-7233.29
-7226.82
-7220.34
-7213.92
-7207.6
-7201.41
-7195.4
-7189.59
-7184
-7178.67
-7173.61
-7168.82
-7164.33
-7160.13
-7156.22
-7152.61
-7149.28
-7146.23
-7143.45
-7140.92
-7138.63
-7136.57
-7134.71
-7133.04
-7131.53
-7130.16
-7128.89
-7127.68
-7126.47
-7125.19
-7123.7
-7121.8
-7119.15
-7115.11
-7108.46
-7096.49
-7072.53
-7017.31
-6864.55
-6342.89
-6866.26
-7871.93
-8228.01
-8374.27
-8443.8
-8481.59
-8504.8
-8520.78
-8533.03
-8543.39
-8552.87
-8562.1
-8571.47
-8581.22
-8591.53
-8602.5
-8614.22
-8626.73
-8640.06
-8654.21
-8669.18
-8684.94
-8701.44
-8718.63
-8736.45
-8754.79
-8773.57
-8792.67
-8811.97
-8831.33
-8850.6
-8869.63
-8888.25
-8906.32
-8923.65
-8940.08
-8955.45
-8969.6
-8982.39
-8993.68
-9003.34
-9011.27
-9017.38
-9021.6
-9023.88
-9024.19
-9022.53
-9018.91
-9013.38
-9005.99
-8996.83
-8986
-8973.61
-8959.8
-8944.71
-8928.49
-8911.31
-8893.34
-8874.73
-8855.66
-8836.3
-8816.8
-8797.32
-8778
-8758.96
-8740.34
-8722.23
-8704.74
-8687.93
-8671.88
-8656.64
-8642.24
-8628.71
-8616.07
-8604.31
-8593.43
-8583.41
-8574.22
-8565.85
-8558.24
-8551.35
-8545.14
-8539.54
-8534.51
-8529.97
-8525.84
-8522.03
-8518.4
-8514.79
-8510.95
-8506.51
-8500.88
-8493.06
-8481.26
-8462.01
-8427.99
-8362.1
-8219.38
-7866.78
-6864.55
-7020.17
-8228.01
-8695.4
-8901.86
-9005.4
-9063.81
-9100.61
-9126.41
-9146.46
-9163.56
-9179.32
-9194.73
-9210.39
-9226.73
-9244
-9262.41
-9282.07
-9303.06
-9325.43
-9349.18
-9374.3
-9400.74
-9428.44
-9457.29
-9487.19
-9517.98
-9549.49
-9581.55
-9613.94
-9646.43
-9678.77
-9710.71
-9741.98
-9772.29
-9801.38
-9828.96
-9854.76
-9878.52
-9899.99
-9918.94
-9935.16
-9948.47
-9958.73
-9965.82
-9969.65
-9970.18
-9967.4
-9961.33
-9952.05
-9939.66
-9924.3
-9906.12
-9885.34
-9862.16
-9836.84
-9809.63
-9780.8
-9750.63
-9719.4
-9687.41
-9654.91
-9622.19
-9589.49
-9557.05
-9525.11
-9493.85
-9463.46
-9434.09
-9405.88
-9378.94
-9353.35
-9329.18
-9306.47
-9285.24
-9265.5
-9247.24
-9230.42
-9215
-9200.93
-9188.15
-9176.59
-9166.16
-9156.78
-9148.33
-9140.72
-9133.8
-9127.41
-9121.35
-9115.35
-9108.99
-9101.7
-9092.52
-9079.91
-9061.11
-9030.95
-8978.88
-8881.45
-8680.93
-8219.37
-7017.3
-7076.58
-8374.27
-8901.86
-9146.63
-9274.73
-9349.54
-9397.98
-9432.68
-9460.1
-9483.77
-9505.77
-9527.4
-9549.46
-9572.52
-9596.93
-9622.95
-9650.77
-9680.47
-9712.12
-9745.74
-9781.3
-9818.73
-9857.93
-9898.78
-9941.1
-9984.68
-10029.3
-10074.7
-10120.5
-10166.5
-10212.3
-10257.6
-10301.8
-10344.8
-10385.9
-10425
-10461.5
-10495.2
-10525.6
-10552.4
-10575.4
-10594.3
-10608.8
-10618.9
-10624.3
-10625.1
-10621.2
-10612.6
-10599.5
-10582
-10560.3
-10534.5
-10505.1
-10472.3
-10436.5
-10398
-10357.2
-10314.5
-10270.3
-10225
-10179
-10132.6
-10086.3
-10040.4
-9995.19
-9950.93
-9907.89
-9866.31
-9826.36
-9788.21
-9751.97
-9717.74
-9685.57
-9655.51
-9627.55
-9601.67
-9577.85
-9556.01
-9536.08
-9517.98
-9501.6
-9486.83
-9473.54
-9461.58
-9450.81
-9441.03
-9432.03
-9423.51
-9415.11
-9406.28
-9396.26
-9383.8
-9366.91
-9342.11
-9303.06
-9237.22
-9117.76
-8881.39
-8362.04
-7072.51
-7101.74
-8443.8
-9005.4
-9274.73
-9420.4
-9508.06
-9566.35
-9609.05
-9643.41
-9673.5
-9701.75
-9729.7
-9758.33
-9788.32
-9820.12
-9854.06
-9890.35
-9929.12
-9970.44
-10014.3
-10060.8
-10109.6
-10160.8
-10214.2
-10269.4
-10326.4
-10384.6
-10443.9
-10503.8
-10563.9
-10623.7
-10682.8
-10740.7
-10796.8
-10850.6
-10901.7
-10949.4
-10993.4
-11033.2
-11068.3
-11098.3
-11123
-11142.1
-11155.2
-11162.4
-11163.5
-11158.4
-11147.2
-11130.2
-11107.3
-11079
-11045.4
-11007
-10964.2
-10917.4
-10867.1
-10813.9
-10758.1
-10700.4
-10641.2
-10581.1
-10520.6
-10460.1
-10400.1
-10341
-10283.2
-10227
-10172.6
-10120.4
-10070.5
-10023.2
-9978.44
-9936.4
-9897.1
-9860.55
-9826.73
-9795.58
-9767.03
-9740.98
-9717.32
-9695.9
-9676.6
-9659.22
-9643.61
-9629.54
-9616.8
-9605.09
-9594.06
-9583.24
-9572
-9559.37
-9543.91
-9523.27
-9493.49
-9447.45
-9371.48
-9237.08
-8978.7
-8427.85
-7096.44
-7114.96
-8481.59
-9063.81
-9349.54
-9508.06
-9605.94
-9672.64
-9722.6
-9763.58
-9800.01
-9834.58
-9869.02
-9904.47
-9941.71
-9981.27
-10023.5
-10068.7
-10117.1
-10168.6
-10223.3
-10281.2
-10342.2
-10406
-10472.6
-10541.5
-10612.6
-10685.3
-10759.3
-10834
-10909
-10983.7
-11057.5
-11129.7
-11199.7
-11267
-11330.7
-11390.4
-11445.3
-11495
-11538.9
-11576.5
-11607.4
-11631.3
-11647.8
-11656.8
-11658.3
-11652
-11638.2
-11617
-11588.5
-11553.2
-11511.4
-11463.6
-11410.2
-11351.9
-11289.2
-11222.7
-11153.1
-11081.1
-11007.3
-10932.3
-10856.7
-10781.2
-10706.4
-10632.6
-10560.4
-10490.2
-10422.3
-10357.1
-10294.8
-10235.7
-10179.8
-10127.3
-10078.2
-10032.6
-9990.3
-9951.39
-9915.72
-9883.17
-9853.61
-9826.86
-9802.74
-9781.04
-9761.55
-9744.01
-9728.14
-9713.6
-9699.97
-9686.7
-9673.05
-9657.94
-9639.72
-9615.83
-9581.94
-9530.49
-9447.17
-9302.67
-9030.58
-8461.75
-7108.36
-7122.93
-8504.8
-9100.61
-9397.98
-9566.35
-9672.64
-9746.72
-9803.44
-9850.84
-9893.62
-9934.68
-9975.89
-10018.5
-10063.4
-10111.2
-10162.3
-10217
-10275.6
-10338
-10404.3
-10474.4
-10548.3
-10625.7
-10706.4
-10790
-10876.1
-10964.3
-11054
-11144.7
-11235.7
-11326.3
-11415.8
-11503.4
-11588.5
-11670.1
-11747.5
-11820
-11886.7
-11947.1
-12000.5
-12046.2
-12083.9
-12112.9
-12133.2
-12144.2
-12146.1
-12138.7
-12122.1
-12096.4
-12062.1
-12019.4
-11968.8
-11910.9
-11846.2
-11775.5
-11699.5
-11619
-11534.6
-11447.3
-11357.7
-11266.8
-11175.2
-11083.6
-10992.7
-10903.2
-10815.6
-10730.4
-10648
-10568.9
-10493.3
-10421.5
-10353.6
-10289.8
-10230.2
-10174.8
-10123.5
-10076.2
-10032.9
-9993.36
-9957.45
-9924.96
-9895.67
-9869.33
-9845.68
-9824.42
-9805.22
-9787.68
-9771.32
-9755.51
-9739.44
-9721.9
-9701.14
-9674.38
-9637.11
-9581.45
-9492.75
-9341.34
-9060.45
-8480.82
-7114.96
-7128.35
-8520.78
-9126.41
-9432.68
-9609.05
-9722.6
-9803.44
-9866.62
-9920.41
-9969.68
-10017.5
-10065.8
-10116.1
-10169.2
-10225.8
-10286.4
-10351.4
-10420.9
-10495.1
-10573.9
-10657.3
-10745.1
-10837.1
-10933.1
-11032.5
-11135
-11239.9
-11346.7
-11454.6
-11562.9
-11670.8
-11777.3
-11881.7
-11983
-12080.2
-12172.5
-12258.9
-12338.6
-12410.6
-12474.3
-12528.9
-12573.9
-12608.8
-12633
-12646.5
-12648.9
-12640.3
-12620.7
-12590.4
-12549.7
-12499.1
-12439
-12370.2
-12293.4
-12209.4
-12119
-12023.2
-11922.9
-11819
-11712.5
-11604.2
-11495.1
-11386.1
-11277.9
-11171.3
-11067
-10965.5
-10867.4
-10773.1
-10683.1
-10597.5
-10516.7
-10440.7
-10369.6
-10303.5
-10242.4
-10186
-10134.4
-10087.3
-10044.5
-10005.8
-9970.84
-9939.46
-9911.3
-9886.01
-9863.2
-9842.44
-9823.17
-9804.71
-9786.16
-9766.22
-9743.04
-9713.72
-9673.58
-9614.57
-9521.86
-9365.58
-9078.84
-8492.37
-7118.9
-7132.48
-8533.03
-9146.46
-9460.1
-9643.41
-9763.58
-9850.84
-9920.41
-9980.69
-10036.7
-10091.7
-10147.6
-10206.1
-10268
-10334.2
-10405.1
-10481.2
-10562.7
-10649.6
-10742
-10839.8
-10942.8
-11050.8
-11163.4
-11280.1
-11400.4
-11523.5
-11648.9
-11775.6
-11902.9
-12029.6
-12154.8
-12277.5
-12396.6
-12511
-12619.5
-12721.2
-12815
-12899.8
-12974.9
-13039.3
-13092.5
-13133.7
-13162.5
-13178.5
-13181.7
-13171.9
-13149.2
-13113.9
-13066.4
-13007.1
-12936.8
-12856.2
-12766.2
-12667.7
-12561.7
-12449.3
-12331.5
-12209.5
-12084.4
-11957.3
-11829.2
-11701.1
-11574
-11448.7
-11326
-11206.8
-11091.4
-10980.6
-10874.7
-10774.1
-10679
-10589.6
-10506.1
-10428.3
-10356.4
-10290.1
-10229.3
-10173.9
-10123.5
-10078
-10036.9
-10000
-9966.91
-9937.22
-9910.49
-9886.23
-9863.83
-9842.55
-9821.4
-9799.04
-9773.5
-9741.8
-9699.15
-9637.39
-9541.57
-9381.71
-9090.89
-8499.85
-7121.44
-7135.95
-8543.39
-9163.56
-9483.77
-9673.5
-9800.01
-9893.62
-9969.68
-10036.7
-10099.9
-10162.4
-10226.6
-10293.9
-10365.4
-10442
-10524.2
-10612.4
-10706.9
-10807.8
-10915
-11028.6
-11148.3
-11273.7
-11404.5
-11540.2
-11679.9
-11823.2
-11968.9
-12116.3
-12264.3
-12411.8
-12557.6
-12700.4
-12839.1
-12972.3
-13098.8
-13217.3
-13326.6
-13425.6
-13513.3
-13588.6
-13650.8
-13699.1
-13733
-13752
-13756.1
-13745.1
-13719.1
-13678.4
-13623.4
-13554.8
-13473.4
-13379.9
-13275.4
-13161
-13037.9
-12907.3
-12770.4
-12628.6
-12483.1
-12335.3
-12186.3
-12037.2
-11889.3
-11743.5
-11600.8
-11461.9
-11327.6
-11198.6
-11075.2
-10958.1
-10847.3
-10743.2
-10645.9
-10555.3
-10471.4
-10394.2
-10323.4
-10258.8
-10200.1
-10147
-10099.2
-10056.2
-10017.6
-9983.11
-9952.08
-9924
-9898.2
-9873.88
-9849.99
-9825.11
-9797.21
-9763.22
-9718.28
-9654.15
-9555.78
-9393.17
-9099.33
-8505.03
-7123.19
-7139.12
-8552.87
-9179.32
-9505.77
-9701.75
-9834.58
-9934.68
-10017.5
-10091.7
-10162.4
-10233.2
-10306.2
-10383.2
-10465.2
-10553.1
-10647.6
-10749.1
-10857.9
-10974
-11097.6
-11228.5
-11366.4
-11511
-11661.9
-11818.3
-11979.5
-12144.8
-12313
-12483.2
-12654
-12824.3
-12992.7
-13157.8
-13318
-13472.1
-13618.3
-13755.5
-13882
-13996.8
-14098.4
-14185.8
-14258
-14314.2
-14353.9
-14376.4
-14381.6
-14369.3
-14339.8
-14293.2
-14230.2
-14151.4
-14057.8
-13950.2
-13829.9
-13698.1
-13556.2
-13405.5
-13247.7
-13084
-12916.2
-12745.5
-12573.4
-12401.4
-12230.5
-12062.1
-11897.2
-11736.7
-11581.5
-11432.4
-11289.8
-11154.3
-11026.3
-10905.9
-10793.4
-10688.6
-10591.6
-10502.3
-10420.4
-10345.7
-10277.8
-10216.4
-10161
-10111.3
-10066.8
-10026.9
-9991.14
-9958.86
-9929.35
-9901.73
-9874.89
-9847.36
-9817.03
-9780.77
-9733.65
-9667.35
-9566.79
-9401.9
-9105.68
-8508.9
-7124.49
-7142.19
-8562.1
-9194.73
-9527.4
-9729.7
-9869.02
-9975.89
-10065.8
-10147.6
-10226.6
-10306.2
-10388.9
-10476.3
-10569.8
-10670.2
-10778.2
-10894.2
-11018.6
-11151.6
-11293
-11442.9
-11600.9
-11766.6
-11939.5
-12118.7
-12303.6
-12493.1
-12686.1
-12881.3
-13077.4
-13272.9
-13466.2
-13655.8
-13839.9
-14016.9
-14185.1
-14342.8
-14488.5
-14620.6
-14737.7
-14838.5
-14921.9
-14987
-15033.1
-15059.6
-15066.1
-15052.6
-15019.3
-14966.4
-14894.6
-14804.7
-14697.7
-14574.7
-14437
-14286.1
-14123.5
-13950.9
-13769.9
-13582.3
-13389.7
-13193.9
-12996.5
-12799
-12602.8
-12409.5
-12220.1
-12035.8
-11857.5
-11686.2
-11522.4
-11366.7
-11219.6
-11081.2
-10951.8
-10831.4
-10719.9
-10617.2
-10523.1
-10437.1
-10359.1
-10288.4
-10224.8
-10167.7
-10116.5
-10070.8
-10029.8
-9992.88
-9959.29
-9928.07
-9898.05
-9867.67
-9834.79
-9796.2
-9746.91
-9678.55
-9575.98
-9409.09
-9110.85
-8512.02
-7125.53
-7145.31
-8571.47
-9210.39
-9549.46
-9758.33
-9904.47
-10018.5
-10116.1
-10206.1
-10293.9
-10383.2
-10476.3
-10575.3
-10681.2
-10795.2
-10917.9
-11049.9
-11191.5
-11342.9
-11504
-11674.7
-11854.7
-12043.6
-12240.6
-12445
-12655.9
-12872
-13092.2
-13315
-13538.9
-13762.1
-13982.9
-14199.5
-14410
-14612.3
-14804.7
-14985.2
-15152
-15303.3
-15437.6
-15553.3
-15649.2
-15724.3
-15777.5
-15808.4
-15816.6
-15801.9
-15764.5
-15704.8
-15623.5
-15521.5
-15399.8
-15259.9
-15103.1
-14931.2
-14746
-14549.2
-14342.8
-14128.8
-13909.1
-13685.6
-13460.2
-13234.7
-13010.7
-12789.8
-12573.5
-12362.9
-12159.2
-11963.4
-11776.2
-11598.2
-11430
-11271.8
-11123.8
-10986.1
-10858.6
-10741.2
-10633.4
-10535.1
-10445.8
-10365
-10292.3
-10226.9
-10168.5
-10116.2
-10069.5
-10027.5
-9989.39
-9954.23
-9920.74
-9887.3
-9851.69
-9810.66
-9759.14
-9688.73
-9584.22
-9415.46
-9115.39
-8514.74
-7126.44
-7148.55
-8581.22
-9226.73
-9572.52
-9788.32
-9941.71
-10063.4
-10169.2
-10268
-10365.4
-10465.2
-10569.8
-10681.2
-10800.8
-10929.7
-11068.5
-11217.9
-11378.3
-11549.8
-11732.4
-11926
-12130.2
-12344.4
-12567.9
-12799.9
-13039.3
-13284.7
-13534.8
-13787.9
-14042.3
-14296
-14547.1
-14793.4
-15032.8
-15263.2
-15482.2
-15687.8
-15877.9
-16050.5
-16203.7
-16335.9
-16445.7
-16531.7
-16593.1
-16629
-16639.1
-16623.2
-16581.5
-16514.4
-16422.8
-16307.5
-16169.9
-16011.4
-15833.8
-15639
-15428.8
-15205.6
-14971.3
-14728.3
-14478.8
-14224.9
-13968.8
-13712.5
-13457.9
-13206.8
-12960.7
-12721.3
-12489.6
-12266.8
-12053.8
-11851.3
-11659.9
-11479.8
-11311.4
-11154.6
-11009.5
-10875.7
-10753.1
-10641.2
-10539.5
-10447.5
-10364.6
-10290.3
-10223.7
-10164.3
-10111.2
-10063.6
-10020.6
-9981.13
-9943.84
-9907.08
-9868.54
-9824.91
-9771.06
-9698.53
-9592.07
-9421.47
-9119.64
-8517.27
-7127.28
-7151.98
-8591.53
-9244
-9596.93
-9820.12
-9981.27
-10111.2
-10225.8
-10334.2
-10442
-10553.1
-10670.2
-10795.2
-10929.7
-11074.7
-11231.1
-11399.6
-11580.4
-11773.9
-11980
-12198.6
-12429.1
-12671.1
-12923.6
-13185.8
-13456.3
-13733.8
-14016.6
-14302.9
-14590.7
-14877.8
-15162.1
-15441
-15712.3
-15973.3
-16221.7
-16454.9
-16670.6
-16866.6
-17040.7
-17191.2
-17316.2
-17414.5
-17484.8
-17526.4
-17538.7
-17521.7
-17475.4
-17400.4
-17297.5
-17167.9
-17012.9
-16834.3
-16633.9
-16414
-16176.7
-15924.4
-15659.7
-15384.9
-15102.7
-14815.6
-14525.8
-14235.8
-13947.6
-13663.3
-13384.7
-13113.5
-12851.2
-12598.8
-12357.5
-12128.1
-11911.1
-11707.1
-11516.2
-11338.5
-11174
-11022.3
-10883.3
-10756.4
-10641
-10536.8
-10442.8
-10358.5
-10283.1
-10215.8
-10155.7
-10102
-10053.6
-10009.4
-9967.99
-9927.61
-9885.89
-9839.47
-9783.15
-9708.39
-9599.91
-9427.44
-9123.84
-8519.77
-7128.11
-7155.63
-8602.5
-9262.41
-9622.95
-9854.06
-10023.5
-10162.3
-10286.4
-10405.1
-10524.2
-10647.6
-10778.2
-10917.9
-11068.5
-11231.1
-11406.7
-11595.8
-11799
-12016.4
-12248.1
-12493.7
-12753
-13025.2
-13309.4
-13604.4
-13908.9
-14221.4
-14539.9
-14862.4
-15186.7
-15510.4
-15830.8
-16145.5
-16451.5
-16746.1
-17026.5
-17290
-17533.8
-17755.4
-17952.6
-18123
-18264.9
-18376.7
-18457
-18504.9
-18519.9
-18501.7
-18450.6
-18367.1
-18252.1
-18106.9
-17933.1
-17732.6
-17507.5
-17260.2
-16993.3
-16709.4
-16411.4
-16102.1
-15784.3
-15460.8
-15134.3
-14807.4
-14482.5
-14162
-13847.9
-13542
-13246
-12961.3
-12689.1
-12430.2
-12185.3
-11955
-11739.6
-11539
-11353.2
-11182
-11025
-10881.6
-10751.4
-10633.7
-10527.6
-10432.4
-10347.3
-10271.4
-10203.7
-10143.2
-10088.9
-10039.6
-9993.62
-9949.29
-9904.14
-9854.7
-9795.72
-9718.6
-9607.99
-9433.56
-9128.13
-8522.31
-7128.96
-7159.52
-8614.22
-9282.07
-9650.77
-9890.35
-10068.7
-10217
-10351.4
-10481.2
-10612.4
-10749.1
-10894.2
-11049.9
-11217.9
-11399.6
-11595.8
-11807.3
-12034.7
-12278
-12537.4
-12812.5
-13103
-13407.9
-13726.4
-14057.2
-14398.6
-14749
-15106.3
-15468.2
-15832.2
-16195.6
-16555.6
-16909
-17252.9
-17584.1
-17899.5
-18195.9
-18470.4
-18720.2
-18942.4
-19134.8
-19295.2
-19421.7
-19513.1
-19568
-19586.1
-19566.9
-19510.6
-19418
-19290
-19128
-18933.9
-18709.6
-18457.8
-18180.9
-17881.9
-17563.7
-17229.6
-16882.7
-16526.2
-16163.1
-15796.7
-15429.7
-15064.9
-14705
-14352.1
-14008.5
-13676
-13356
-13050
-12759
-12483.8
-12224.9
-11982.6
-11757.1
-11548.1
-11355.6
-11179
-11017.8
-10871.3
-10738.8
-10619.5
-10512.4
-10416.7
-10331.4
-10255.4
-10187.6
-10126.9
-10071.9
-10021
-9972.44
-9923.55
-9870.85
-9809.01
-9729.36
-9616.47
-9439.97
-9132.61
-8524.97
-7129.84
-7163.68
-8626.73
-9303.06
-9680.47
-9929.12
-10117.1
-10275.6
-10420.9
-10562.7
-10706.9
-10857.9
-11018.6
-11191.5
-11378.3
-11580.4
-11799
-12034.7
-12288.1
-12559.4
-12848.7
-13155.6
-13479.7
-13820.1
-14175.6
-14545
-14926.4
-15317.9
-15717.2
-16121.7
-16528.7
-16935.1
-17337.8
-17733.3
-18118.3
-18489.3
-18842.6
-19174.9
-19482.7
-19762.9
-20012.5
-20228.8
-20409.4
-20552.2
-20655.6
-20718.4
-20739.9
-20719.7
-20658.2
-20555.8
-20413.9
-20233.9
-20017.9
-19768.1
-19487.3
-19178.5
-18844.8
-18489.6
-18116.4
-17728.9
-17330.4
-16924.6
-16514.9
-16104.5
-15696.5
-15293.8
-14899
-14514.5
-14142.3
-13784.1
-13441.6
-13115.7
-12807.5
-12517.6
-12246.2
-11993.5
-11759.5
-11543.7
-11345.9
-11165.2
-11001.1
-10852.6
-10718.9
-10599
-10491.8
-10396.3
-10311.2
-10235.5
-10167.8
-10106.7
-10050.5
-9997.25
-9944.32
-9888.1
-9823.18
-9740.8
-9625.48
-9446.77
-9137.37
-8527.78
-7130.77
-7168.11
-8640.06
-9325.43
-9712.12
-9970.44
-10168.6
-10338
-10495.1
-10649.6
-10807.8
-10974
-11151.6
-11342.9
-11549.8
-11773.9
-12016.4
-12278
-12559.4
-12860.8
-13182.2
-13523.3
-13883.6
-14262.1
-14657.5
-15068.4
-15492.8
-15928.5
-16373
-16823.5
-17276.8
-17729.6
-18178.4
-18619.4
-19048.7
-19462.6
-19856.9
-20227.9
-20571.8
-20885.1
-21164.3
-21406.6
-21609.1
-21769.6
-21886.2
-21957.6
-21983
-21962.1
-21894.9
-21782.3
-21625.5
-21426.3
-21186.8
-20909.6
-20597.8
-20254.6
-19883.6
-19488.6
-19073.4
-18642.1
-18198.5
-17746.6
-17290.2
-16833
-16378.4
-15929.6
-15489.6
-15060.9
-14645.9
-14246.5
-13864.4
-13501
-13157.2
-12833.7
-12530.9
-12248.9
-11987.7
-11747
-11526.1
-11324.5
-11141.2
-10975.5
-10826.3
-10692.4
-10572.8
-10466.2
-10371.4
-10287
-10211.8
-10144.1
-10082.1
-10023.9
-9966.58
-9906.56
-9838.32
-9753.02
-9635.09
-9454.02
-9142.43
-8530.77
-7131.76
-7172.81
-8654.21
-9349.18
-9745.74
-10014.3
-10223.3
-10404.3
-10573.9
-10742
-10915
-11097.6
-11293
-11504
-11732.4
-11980
-12248.1
-12537.4
-12848.7
-13182.2
-13538
-13915.7
-14314.7
-14733.9
-15172.1
-15627.5
-16097.9
-16581
-17074
-17573.7
-18076.8
-18579.4
-19077.6
-19567.4
-20044.4
-20504.3
-20942.7
-21355.4
-21738.2
-22087
-22398.3
-22668.5
-22894.7
-23074.4
-23205.4
-23286.3
-23316.2
-23294.5
-23221.6
-23098.1
-22925.6
-22705.9
-22441.4
-22135
-21790
-21410.1
-20999.2
-20561.5
-20101.4
-19623.1
-19131.1
-18629.8
-18123.4
-17616
-17111.3
-16613.1
-16124.4
-15648.3
-15187.3
-14743.6
-14319.1
-13915.3
-13533.2
-13173.6
-12837
-12523.6
-12233.2
-11965.5
-11719.9
-11495.7
-11291.9
-11107.6
-10941.6
-10792.8
-10659.7
-10541.3
-10435.9
-10342.4
-10259
-10184.1
-10116
-10052.4
-9990.41
-9926.32
-9854.52
-9766.08
-9645.36
-9461.76
-9147.83
-8533.96
-7132.81
-7177.78
-8669.18
-9374.3
-9781.3
-10060.8
-10281.2
-10474.4
-10657.3
-10839.8
-11028.6
-11228.5
-11442.9
-11674.7
-11926
-12198.6
-12493.7
-12812.5
-13155.6
-13523.3
-13915.7
-14332.3
-14772.5
-15235.2
-15718.9
-16221.7
-16741.2
-17274.9
-17819.6
-18371.9
-18927.9
-19483.7
-20034.8
-20576.7
-21104.6
-21613.8
-22099.5
-22556.8
-22981.2
-23368.2
-23713.7
-24014
-24265.8
-24466.1
-24612.8
-24704
-24738.8
-24716.6
-24637.7
-24502.9
-24313.8
-24072.4
-23781.4
-23443.9
-23063.7
-22644.7
-22191.4
-21708.2
-21200.1
-20671.8
-20128.2
-19574.1
-19014.4
-18453.3
-17895.2
-17344.1
-16803.5
-16276.7
-15766.6
-15275.6
-14805.7
-14358.6
-13935.5
-13537.4
-13164.7
-12817.5
-12495.9
-12199.4
-11927.3
-11678.9
-11453.2
-11249
-11065.1
-10900.2
-10752.8
-10621.6
-10505
-10401.5
-10309.4
-10227
-10152.3
-10082.8
-10015.9
-9947.41
-9871.8
-9780.01
-9656.3
-9470
-9153.58
-8537.37
-7133.94
-7183.02
-8684.94
-9400.74
-9818.73
-10109.6
-10342.2
-10548.3
-10745.1
-10942.8
-11148.3
-11366.4
-11600.9
-11854.7
-12130.2
-12429.1
-12753
-13103
-13479.7
-13883.6
-14314.7
-14772.5
-15256.4
-15765.1
-16297
-16850
-17421.7
-18009
-18608.5
-19216.6
-19829
-20441.3
-21048.5
-21645.9
-22228
-22789.6
-23325.5
-23830.4
-24299.1
-24726.8
-25109
-25441.5
-25720.5
-25943
-26106.5
-26208.9
-26249.2
-26226.7
-26141.7
-25995.1
-25788.5
-25524.3
-25205.3
-24835.1
-24417.6
-23957.3
-23458.9
-22927.6
-22368.5
-21787.1
-21188.8
-20578.8
-19962.3
-19344.3
-18729.4
-18122.1
-17526.3
-16945.7
-16383.3
-15841.9
-15323.7
-14830.6
-14364
-13924.8
-13513.6
-13130.6
-12775.7
-12448.5
-12148.3
-11874.1
-11625
-11399.6
-11196.6
-11014.6
-10852
-10707.2
-10578.6
-10464.5
-10363.2
-10272.6
-10190.8
-10115.3
-10042.9
-9969.84
-9890.17
-9794.82
-9667.94
-9478.77
-9159.7
-8540.98
-7135.14
-7188.5
-8701.44
-9428.44
-9857.93
-10160.8
-10406
-10625.7
-10837.1
-11050.8
-11273.7
-11511
-11766.6
-12043.6
-12344.4
-12671.1
-13025.2
-13407.9
-13820.1
-14262.1
-14733.9
-15235.2
-15765.1
-16322.3
-16905.1
-17511.1
-18137.7
-18781.5
-19439
-20106
-20778
-21449.9
-22116.6
-22772.5
-23411.9
-24029.1
-24618.2
-25173.4
-25689.1
-26160.1
-26581.1
-26947.8
-27255.9
-27502.2
-27683.6
-27798.1
-27844.4
-27821.8
-27730.6
-27571.8
-27347
-27058.9
-26710.6
-26305.9
-25849.2
-25345.3
-24799.5
-24217.4
-23604.7
-22967.3
-22311.1
-21642
-20965.6
-20287.4
-19612.6
-18945.9
-18291.7
-17654.1
-17036.4
-16441.7
-15872.5
-15330.7
-14818
-14335.3
-13883.4
-13462.4
-13072.3
-12712.5
-12382.4
-12081
-11807
-11559.2
-11336
-11135.8
-10957
-10797.9
-10656.6
-10531.3
-10420.1
-10321
-10231.7
-10149.6
-10071.6
-9993.61
-9909.64
-9810.51
-9680.27
-9488.06
-9166.18
-8544.81
-7136.4
-7194.21
-8718.63
-9457.29
-9898.78
-10214.2
-10472.6
-10706.4
-10933.1
-11163.4
-11404.5
-11661.9
-11939.5
-12240.6
-12567.9
-12923.6
-13309.4
-13726.4
-14175.6
-14657.5
-15172.1
-15718.9
-16297
-16905.1
-17541.1
-18202.8
-18887
-19590.2
-20308.6
-21037.4
-21771.9
-22506.5
-23235.6
-23953.2
-24652.9
-25328.6
-25973.7
-26582
-27147.3
-27663.8
-28126
-28528.8
-28867.8
-29139.1
-29339.7
-29467.2
-29520.1
-29497.7
-29400.3
-29228.8
-28985.2
-28672.2
-28293.3
-27852.5
-27354.8
-26805.3
-26209.8
-25574.4
-24905.5
-24209.3
-23492.4
-22761.2
-22021.9
-21280.4
-20542.5
-19813.4
-19097.8
-18400.2
-17724.4
-17073.6
-16450.6
-15857.6
-15296.3
-14767.9
-14273.1
-13812.1
-13384.8
-12990.8
-12629.3
-12299.1
-11999
-11727.5
-11483
-11263.7
-11067.8
-10893.5
-10738.8
-10601.7
-10480.2
-10372
-10274.8
-10185.8
-10101.9
-10018.7
-9930.16
-9827.05
-9693.26
-9497.85
-9173.01
-8548.85
-7137.74
-7200.13
-8736.45
-9487.19
-9941.1
-10269.4
-10541.5
-10790
-11032.5
-11280.1
-11540.2
-11818.3
-12118.7
-12445
-12799.9
-13185.8
-13604.4
-14057.2
-14545
-15068.4
-15627.5
-16221.7
-16850
-17511.1
-18202.8
-18922.4
-19666.7
-20432
-21213.8
-22007.3
-22807.1
-23607.3
-24401.7
-25183.7
-25946.6
-26683.4
-27387.2
-28051.1
-28668.5
-29232.8
-29738.1
-30179
-30550.4
-30848.3
-31069.2
-31210.5
-31270.6
-31248.7
-31144.9
-30960.5
-30697.5
-30358.8
-29948.1
-29469.9
-28929.4
-28332.5
-27685.2
-26994.3
-26266.6
-25509.1
-24728.8
-23932.8
-23127.7
-22320.2
-21516.3
-20721.9
-19942.1
-19181.8
-18445.1
-17735.7
-17056.4
-16409.8
-15797.6
-15221.3
-14681.5
-14178.6
-13712.5
-13282.6
-12888.1
-12527.8
-12200.3
-11904
-11637.1
-11397.8
-11184
-10993.8
-10825
-10675.6
-10543.1
-10425.4
-10319.9
-10223.8
-10133.6
-10044.9
-9951.69
-9844.4
-9706.89
-9508.11
-9180.18
-8553.09
-7139.14
-7206.22
-8754.79
-9517.98
-9984.68
-10326.4
-10612.6
-10876.1
-11135
-11400.4
-11679.9
-11979.5
-12303.6
-12655.9
-13039.3
-13456.3
-13908.9
-14398.6
-14926.4
-15492.8
-16097.9
-16741.2
-17421.7
-18137.7
-18887
-19666.7
-20473.4
-21303
-22150.8
-23011.4
-23879
-24747.3
-25609.6
-26458.6
-27287.2
-28087.7
-28852.6
-29574.5
-30246.1
-30860.3
-31410.8
-31891.4
-32296.8
-32622.5
-32864.8
-33020.8
-33088.6
-33067.5
-32957.6
-32760
-32477.1
-32111.8
-31668.3
-31151.5
-30566.9
-29920.8
-29219.9
-28471.4
-27682.8
-26861.7
-26015.6
-25152.2
-24278.8
-23402.6
-22530.2
-21667.9
-20821.4
-19995.9
-19195.9
-18425.3
-17687.5
-16985.1
-16320
-15693.8
-15107.2
-14560.7
-14054.1
-13586.8
-13157.9
-12766.2
-12410.1
-12088
-11797.8
-11537.6
-11305.2
-11098.4
-10915
-10752.6
-10608.8
-10481.2
-10367.1
-10263.4
-10166.7
-10072.4
-9974.15
-9862.49
-9721.11
-9518.83
-9187.66
-8557.51
-7140.6
-7212.46
-8773.57
-9549.49
-10029.3
-10384.6
-10685.3
-10964.3
-11239.9
-11523.5
-11823.2
-12144.8
-12493.1
-12872
-13284.7
-13733.8
-14221.4
-14749
-15317.9
-15928.5
-16581
-17274.9
-18009
-18781.5
-19590.2
-20432
-21303
-22199
-23114.7
-24044.6
-24982.3
-25921
-26853.4
-27771.7
-28668.2
-29534.6
-30362.8
-31144.8
-31872.5
-32538.6
-33135.8
-33657.7
-34098.5
-34453.3
-34718
-34889.4
-34965.6
-34945.6
-34829.6
-34618.8
-34315.5
-33923.2
-33446.1
-32889.6
-32259.6
-31562.9
-30806.8
-29999
-29147.6
-28260.8
-27346.8
-26413.9
-25470
-24522.9
-23579.7
-22647.2
-21731.7
-20838.8
-19973.3
-19139.6
-18341.2
-17581
-16861.1
-16183.3
-15548.3
-14956.6
-14408
-13902
-13437.5
-13013.3
-12627.7
-12278.7
-11964.4
-11682.5
-11430.8
-11206.9
-11008.2
-10832.4
-10676.9
-10539
-10416
-10304.5
-10201
-10100.8
-9997.44
-9881.27
-9735.87
-9529.95
-9195.42
-8562.09
-7142.12
-7218.81
-8792.67
-9581.55
-10074.7
-10443.9
-10759.3
-11054
-11346.7
-11648.9
-11968.9
-12313
-12686.1
-13092.2
-13534.8
-14016.6
-14539.9
-15106.3
-15717.2
-16373
-17074
-17819.6
-18608.5
-19439
-20308.6
-21213.8
-22150.8
-23114.7
-24100.3
-25101.2
-26110.8
-27121.7
-28126.1
-29115.6
-30081.9
-31016.1
-31909.4
-32753.2
-33538.8
-34258.2
-34903.8
-35468.4
-35945.9
-36330.8
-36618.7
-36806.4
-36891.5
-36873
-36751
-36526.9
-36203.1
-35783.2
-35271.9
-34674.9
-33998.5
-33250.1
-32437.5
-31569
-30653.3
-29699.2
-28715.6
-27711.4
-26695.1
-25675.2
-24659.3
-23654.8
-22668.4
-21706.1
-20773.4
-19874.8
-19014.1
-18194.5
-17418.3
-16687.3
-16002.5
-15364.3
-14772.5
-14226.7
-13725.6
-13267.9
-12851.8
-12475.2
-12136.1
-11831.9
-11560.3
-11318.6
-11104.3
-10914.8
-10747.1
-10598.7
-10466.3
-10346.9
-10236.4
-10130.1
-10021.5
-9900.63
-9751.08
-9541.41
-9203.42
-8566.82
-7143.69
-7225.22
-8811.97
-9613.94
-10120.5
-10503.8
-10834
-11144.7
-11454.6
-11775.6
-12116.3
-12483.2
-12881.3
-13315
-13787.9
-14302.9
-14862.4
-15468.2
-16121.7
-16823.5
-17573.7
-18371.9
-19216.6
-20106
-21037.4
-22007.3
-23011.4
-24044.6
-25101.2
-26174.5
-27257.4
-28342
-29419.8
-30482.1
-31519.7
-32523.1
-33483
-34390
-35234.9
-36009
-36704.1
-37312.5
-37827.7
-38243.7
-38555.7
-38760.2
-38854.7
-38838.1
-38710.4
-38473
-38128.6
-37680.9
-37135.1
-36497
-35773.6
-34972.7
-34102.6
-33172.3
-32191.1
-31168.5
-30114
-29037.1
-27947.1
-26852.8
-25762.8
-24684.8
-23626
-22593.1
-21591.6
-20626.7
-19702.3
-18822
-17988.3
-17203
-16467.2
-15781.5
-15145.6
-14559
-14020.5
-13528.5
-13081.2
-12676.5
-12311.9
-11984.9
-11692.9
-11433.1
-11202.8
-10999.1
-10819
-10659.7
-10518
-10390.3
-10272.6
-10160.1
-10046.1
-9920.46
-9766.67
-9553.16
-9211.62
-8571.67
-7145.29
-7231.65
-8831.33
-9646.43
-10166.5
-10563.9
-10909
-11235.7
-11562.9
-11902.9
-12264.3
-12654
-13077.4
-13538.9
-14042.3
-14590.7
-15186.7
-15832.2
-16528.7
-17276.8
-18076.8
-18927.9
-19829
-20778
-21771.9
-22807.1
-23879
-24982.3
-26110.8
-27257.4
-28414.5
-29573.7
-30726
-31862
-32971.9
-34045.6
-35073.1
-36044.3
-36949.5
-37779.2
-38524.8
-39178
-39731.6
-40179.4
-40516.2
-40738.1
-40842.5
-40828.1
-40695
-40444.5
-40079.6
-39604.1
-39023.5
-38344.1
-37573.3
-36719.4
-35791.3
-34798.6
-33751.3
-32659.3
-31533.1
-30382.6
-29217.9
-28048.5
-26883.2
-25730.7
-24598.6
-23493.9
-22422.8
-21390.6
-20401.7
-19459.7
-18567.6
-17727.1
-16939.6
-16205.6
-15524.9
-14896.9
-14320.3
-13793.5
-13314.6
-12881.1
-12490.7
-12140.5
-11827.8
-11549.6
-11302.9
-11084.8
-10892.2
-10721.9
-10570.5
-10434.4
-10309.5
-10190.7
-10071.1
-9940.66
-9782.55
-9565.13
-9219.98
-8576.61
-7146.93
-7238.05
-8850.6
-9678.77
-10212.3
-10623.7
-10983.7
-11326.3
-11670.8
-12029.6
-12411.8
-12824.3
-13272.9
-13762.1
-14296
-14877.8
-15510.4
-16195.6
-16935.1
-17729.6
-18579.4
-19483.7
-20441.3
-21449.9
-22506.5
-23607.3
-24747.3
-25921
-27121.7
-28342
-29573.7
-30808
-32035.2
-33245.4
-34428.1
-35572.6
-36668.3
-37704.3
-38670.3
-39556.4
-40352.9
-41051.4
-41644.1
-42124.2
-42486.3
-42726.1
-42840.9
-42829.1
-42690.9
-42427.6
-42042.3
-41539.3
-40924
-40203.4
-39385.2
-38478.2
-37492
-36436.7
-35322.9
-34161.4
-32963.1
-31738.7
-30498.9
-29253.7
-28012.9
-26785.4
-25579.5
-24402.6
-23261.2
-22161.2
-21107.3
-20103.3
-19152.2
-18256.2
-17416.5
-16633.8
-15907.9
-15238.1
-14623.1
-14061.2
-13550.3
-13087.9
-12671.3
-12297.7
-11964
-11667.2
-11404.1
-11171.5
-10966.2
-10784.7
-10623.6
-10479.1
-10346.8
-10221.6
-10096.4
-9961.08
-9798.6
-9577.23
-9228.43
-8581.61
-7148.58
-7244.37
-8869.63
-9710.71
-10257.6
-10682.8
-11057.5
-11415.8
-11777.3
-12154.8
-12557.6
-12992.7
-13466.2
-13982.9
-14547.1
-15162.1
-15830.8
-16555.6
-17337.8
-18178.4
-19077.6
-20034.8
-21048.5
-22116.6
-23235.6
-24401.7
-25609.6
-26853.4
-28126.1
-29419.8
-30726
-32035.2
-33337.3
-34621.6
-35877.1
-37092.5
-38256.3
-39357.3
-40384.3
-41326.8
-42174.6
-42918.6
-43550.6
-44063.4
-44451.1
-44709.2
-44834.7
-44825.9
-44683
-44407.4
-44002.2
-43471.9
-42822.4
-42060.8
-41195.6
-40235.9
-39191.9
-38074.3
-36894.4
-35663.5
-34393.3
-33095.2
-31780.4
-30459.8
-29143.5
-27841.1
-26561.4
-25312.3
-24100.8
-22933
-21814
-20747.9
-19737.8
-18786.2
-17894.3
-17062.9
-16291.7
-15580
-14926.6
-14329.5
-13786.6
-13295.1
-12852.4
-12455.3
-12100.7
-11785.2
-11505.6
-11258.5
-11040.3
-10847.7
-10676.8
-10523.8
-10384.2
-10252.6
-10121.9
-9981.57
-9814.71
-9589.38
-9236.91
-8586.63
-7150.24
-7250.56
-8888.25
-9741.98
-10301.8
-10740.7
-11129.7
-11503.4
-11881.7
-12277.5
-12700.4
-13157.8
-13655.8
-14199.5
-14793.4
-15441
-16145.5
-16909
-17733.3
-18619.4
-19567.4
-20576.7
-21645.9
-22772.5
-23953.2
-25183.7
-26458.6
-27771.7
-29115.6
-30482.1
-31862
-33245.4
-34621.6
-35979.4
-37307.1
-38592.8
-39824.3
-40989.8
-42077.5
-43076.1
-43975
-44764.5
-45435.8
-45981.3
-46394.7
-46671.3
-46807.8
-46802.5
-46655.3
-46367.9
-45943.3
-45386.4
-44703.4
-43901.7
-42990.2
-41978.6
-40877.5
-39698.5
-38453.2
-37153.8
-35812.5
-34441.4
-33052.5
-31657.1
-30266
-28889.4
-27536.5
-26215.9
-24934.8
-23699.8
-22516.2
-21388.5
-20320
-19313.1
-18369.4
-17489.5
-16673.3
-15920.1
-15228.5
-14596.4
-14021.6
-13501.3
-13032.6
-12612.2
-12236.7
-11902.7
-11606.7
-11345
-11114.2
-10910.4
-10729.9
-10568.4
-10421.5
-10283.5
-10147.2
-10002
-9830.77
-9601.48
-9245.36
-8591.63
-7151.9
-7256.56
-8906.32
-9772.29
-10344.8
-10796.8
-11199.7
-11588.5
-11983
-12396.6
-12839.1
-13318
-13839.9
-14410
-15032.8
-15712.3
-16451.5
-17252.9
-18118.3
-19048.7
-20044.4
-21104.6
-22228
-23411.9
-24652.9
-25946.6
-27287.2
-28668.2
-30081.9
-31519.7
-32971.9