/*--------------------------------*- C++ -*----------------------------------*\
  =========                 |
  \\      /  F ield         | OpenFOAM: The Open Source CFD Toolbox
   \\    /   O peration     | Website:  https://openfoam.org
    \\  /    A nd           | Version:  9
     \\/     M anipulation  |
\*---------------------------------------------------------------------------*/
FoamFile
{
    format      ascii;
    class       volScalarField;
    location    "0.05";
    object      T;
}
// * * * * * * * * * * * * * * * * * * * * * * * * * * * * * * * * * * * * * //

dimensions      [0 0 0 1 0 0 0];

internalField   nonuniform List<scalar> 
200000
(
300.341
300.61
300.749
300.834
300.894
300.938
300.974
301.004
301.031
301.056
301.08
301.105
301.13
301.157
301.184
301.214
301.245
301.278
301.313
301.35
301.389
301.43
301.472
301.516
301.561
301.607
301.655
301.702
301.75
301.798
301.845
301.892
301.937
301.98
302.022
302.061
302.097
302.129
302.159
302.184
302.205
302.222
302.234
302.242
302.245
302.243
302.236
302.224
302.208
302.188
302.163
302.134
302.102
302.066
302.027
301.986
301.943
301.897
301.851
301.803
301.755
301.707
301.659
301.611
301.565
301.519
301.475
301.432
301.391
301.352
301.315
301.279
301.246
301.216
301.187
301.161
301.136
301.114
301.093
301.075
301.058
301.043
301.029
301.016
301.005
300.995
300.985
300.976
300.967
300.958
300.948
300.937
300.923
300.905
300.881
300.847
300.799
300.723
300.595
300.336
300.61
301.239
301.609
301.851
302.024
302.155
302.261
302.351
302.431
302.506
302.58
302.653
302.729
302.808
302.892
302.98
303.074
303.174
303.279
303.391
303.508
303.63
303.758
303.89
304.027
304.166
304.308
304.452
304.596
304.74
304.883
305.022
305.158
305.289
305.414
305.531
305.64
305.738
305.826
305.903
305.967
306.017
306.054
306.077
306.086
306.08
306.059
306.024
305.976
305.913
305.839
305.752
305.655
305.547
305.431
305.307
305.176
305.04
304.9
304.757
304.612
304.467
304.322
304.179
304.038
303.9
303.767
303.638
303.514
303.396
303.284
303.179
303.079
302.987
302.9
302.821
302.747
302.68
302.618
302.562
302.511
302.465
302.424
302.386
302.352
302.321
302.293
302.265
302.239
302.211
302.182
302.147
302.106
302.053
301.982
301.884
301.744
301.532
301.193
300.595
300.749
301.609
302.154
302.529
302.803
303.014
303.187
303.335
303.468
303.593
303.715
303.839
303.966
304.098
304.238
304.387
304.545
304.712
304.889
305.076
305.273
305.478
305.693
305.915
306.144
306.378
306.617
306.858
307.101
307.342
307.582
307.817
308.045
308.265
308.474
308.671
308.853
309.019
309.167
309.296
309.403
309.488
309.551
309.589
309.603
309.593
309.559
309.5
309.419
309.315
309.189
309.044
308.88
308.699
308.504
308.296
308.076
307.848
307.612
307.372
307.129
306.885
306.642
306.401
306.165
305.934
305.709
305.493
305.285
305.087
304.899
304.721
304.555
304.399
304.254
304.12
303.996
303.883
303.779
303.685
303.599
303.522
303.453
303.39
303.333
303.281
303.233
303.187
303.143
303.097
303.048
302.992
302.924
302.837
302.724
302.568
302.348
302.027
301.532
300.723
300.834
301.851
302.529
303.011
303.372
303.657
303.892
304.095
304.28
304.455
304.627
304.8
304.979
305.167
305.365
305.575
305.798
306.035
306.286
306.551
306.829
307.12
307.424
307.739
308.063
308.395
308.733
309.075
309.418
309.761
310.1
310.433
310.756
311.068
311.365
311.644
311.902
312.137
312.347
312.529
312.682
312.803
312.891
312.946
312.966
312.952
312.904
312.821
312.706
312.558
312.381
312.175
311.943
311.688
311.411
311.116
310.805
310.481
310.148
309.808
309.463
309.117
308.773
308.432
308.097
307.769
307.451
307.145
306.85
306.57
306.303
306.051
305.815
305.594
305.389
305.198
305.023
304.862
304.716
304.582
304.461
304.352
304.253
304.164
304.084
304.01
303.942
303.878
303.816
303.752
303.684
303.607
303.514
303.397
303.245
303.04
302.755
302.348
301.743
300.798
300.894
302.024
302.803
303.372
303.809
304.159
304.452
304.709
304.945
305.169
305.391
305.616
305.849
306.093
306.351
306.625
306.916
307.225
307.553
307.899
308.262
308.643
309.039
309.45
309.874
310.307
310.749
311.196
311.645
312.093
312.536
312.971
313.394
313.801
314.189
314.553
314.891
315.199
315.474
315.712
315.912
316.07
316.186
316.258
316.285
316.267
316.204
316.097
315.946
315.754
315.522
315.254
314.951
314.617
314.256
313.87
313.464
313.042
312.606
312.162
311.712
311.26
310.81
310.364
309.926
309.498
309.083
308.682
308.297
307.93
307.581
307.252
306.943
306.654
306.386
306.137
305.908
305.698
305.506
305.331
305.173
305.03
304.901
304.785
304.68
304.584
304.496
304.413
304.332
304.251
304.164
304.067
303.951
303.808
303.622
303.376
303.039
302.567
301.883
300.847
300.938
302.155
303.014
303.657
304.159
304.568
304.916
305.225
305.511
305.786
306.059
306.337
306.625
306.928
307.249
307.59
307.953
308.338
308.746
309.177
309.63
310.105
310.599
311.111
311.639
312.18
312.731
313.289
313.849
314.407
314.96
315.503
316.031
316.539
317.023
317.479
317.901
318.286
318.629
318.927
319.176
319.375
319.52
319.61
319.645
319.623
319.545
319.412
319.225
318.986
318.697
318.363
317.986
317.57
317.119
316.638
316.132
315.605
315.062
314.507
313.946
313.382
312.821
312.265
311.718
311.184
310.666
310.165
309.685
309.227
308.791
308.381
307.995
307.634
307.299
306.988
306.702
306.44
306.2
305.982
305.785
305.606
305.445
305.3
305.169
305.05
304.94
304.837
304.738
304.639
304.534
304.418
304.282
304.114
303.901
303.62
303.242
302.721
301.98
300.88
300.974
302.261
303.187
303.892
304.452
304.916
305.317
305.676
306.012
306.338
306.664
306.997
307.344
307.709
308.097
308.509
308.947
309.412
309.906
310.428
310.976
311.551
312.149
312.77
313.409
314.064
314.732
315.407
316.085
316.762
317.432
318.09
318.73
319.347
319.934
320.486
320.998
321.465
321.881
322.243
322.547
322.788
322.965
323.076
323.119
323.093
323
322.839
322.614
322.325
321.977
321.572
321.116
320.613
320.067
319.485
318.872
318.234
317.576
316.905
316.225
315.542
314.861
314.187
313.525
312.877
312.249
311.642
311.06
310.504
309.977
309.479
309.011
308.573
308.166
307.79
307.443
307.124
306.834
306.569
306.33
306.113
305.918
305.742
305.584
305.44
305.308
305.185
305.067
304.949
304.827
304.692
304.537
304.348
304.11
303.802
303.391
302.832
302.049
300.903
301.004
302.351
303.335
304.095
304.709
305.225
305.676
306.086
306.473
306.852
307.232
307.624
308.033
308.464
308.922
309.41
309.929
310.482
311.067
311.686
312.336
313.018
313.729
314.465
315.224
316.002
316.795
317.596
318.402
319.207
320.003
320.784
321.545
322.278
322.976
323.633
324.243
324.798
325.294
325.725
326.087
326.375
326.587
326.72
326.772
326.744
326.634
326.445
326.178
325.837
325.424
324.945
324.404
323.807
323.16
322.469
321.742
320.984
320.203
319.405
318.598
317.786
316.978
316.177
315.39
314.62
313.873
313.152
312.46
311.799
311.172
310.58
310.023
309.503
309.019
308.571
308.159
307.78
307.434
307.12
306.835
306.578
306.346
306.137
305.949
305.778
305.623
305.478
305.34
305.204
305.064
304.912
304.738
304.53
304.272
303.94
303.503
302.915
302.1
300.921
301.031
302.431
303.468
304.28
304.945
305.511
306.012
306.473
306.913
307.347
307.785
308.239
308.714
309.216
309.75
310.319
310.926
311.571
312.256
312.979
313.74
314.538
315.369
316.231
317.12
318.031
318.958
319.898
320.842
321.784
322.716
323.633
324.524
325.384
326.202
326.973
327.688
328.341
328.923
329.43
329.855
330.195
330.445
330.603
330.666
330.634
330.508
330.289
329.978
329.58
329.098
328.538
327.906
327.208
326.451
325.643
324.792
323.905
322.99
322.056
321.11
320.16
319.212
318.274
317.352
316.45
315.574
314.729
313.918
313.143
312.408
311.713
311.061
310.451
309.883
309.358
308.873
308.429
308.024
307.655
307.321
307.019
306.747
306.503
306.282
306.083
305.902
305.734
305.575
305.42
305.262
305.092
304.901
304.676
304.399
304.047
303.59
302.978
302.139
300.934
301.056
302.506
303.593
304.455
305.169
305.786
306.338
306.852
307.347
307.838
308.339
308.858
309.404
309.983
310.599
311.256
311.957
312.704
313.495
314.332
315.214
316.137
317.1
318.098
319.127
320.182
321.257
322.346
323.44
324.532
325.614
326.677
327.711
328.708
329.659
330.554
331.385
332.143
332.82
333.41
333.905
334.302
334.594
334.779
334.855
334.821
334.677
334.425
334.068
333.608
333.052
332.405
331.674
330.866
329.99
329.055
328.069
327.041
325.982
324.899
323.803
322.701
321.602
320.514
319.444
318.399
317.383
316.402
315.461
314.562
313.709
312.902
312.145
311.437
310.778
310.168
309.606
309.09
308.619
308.191
307.803
307.453
307.138
306.854
306.599
306.369
306.159
305.967
305.786
305.61
305.434
305.247
305.039
304.797
304.503
304.135
303.659
303.029
302.169
300.944
301.08
302.58
303.715
304.627
305.391
306.059
306.664
307.232
307.785
308.339
308.905
309.496
310.118
310.779
311.485
312.238
313.041
313.897
314.805
315.766
316.778
317.838
318.944
320.09
321.273
322.486
323.722
324.973
326.231
327.487
328.732
329.954
331.145
332.293
333.388
334.419
335.376
336.25
337.032
337.713
338.286
338.744
339.084
339.3
339.391
339.355
339.193
338.906
338.497
337.972
337.335
336.593
335.755
334.828
333.823
332.748
331.615
330.435
329.217
327.972
326.712
325.445
324.181
322.93
321.699
320.495
319.326
318.198
317.114
316.079
315.097
314.168
313.296
312.481
311.722
311.019
310.372
309.778
309.235
308.742
308.295
307.892
307.529
307.203
306.91
306.646
306.406
306.187
305.982
305.785
305.589
305.384
305.16
304.902
304.592
304.208
303.716
303.07
302.195
300.952
301.105
302.653
303.839
304.8
305.616
306.337
306.997
307.624
308.239
308.858
309.496
310.163
310.868
311.619
312.42
313.277
314.192
315.167
316.203
317.298
318.452
319.661
320.923
322.232
323.582
324.966
326.377
327.806
329.244
330.679
332.102
333.499
334.861
336.174
337.427
338.607
339.704
340.705
341.601
342.382
343.04
343.568
343.96
344.211
344.318
344.281
344.1
343.776
343.313
342.716
341.991
341.147
340.191
339.135
337.988
336.762
335.47
334.122
332.731
331.31
329.87
328.422
326.978
325.548
324.141
322.765
321.429
320.138
318.898
317.715
316.591
315.529
314.531
313.598
312.73
311.926
311.185
310.505
309.884
309.32
308.808
308.347
307.932
307.559
307.224
306.923
306.651
306.403
306.172
305.952
305.735
305.511
305.27
304.996
304.672
304.273
303.767
303.106
302.216
300.96
301.13
302.729
303.966
304.979
305.849
306.625
307.344
308.033
308.714
309.404
310.118
310.868
311.663
312.51
313.417
314.387
315.423
316.528
317.701
318.943
320.252
321.624
323.055
324.54
326.073
327.645
329.247
330.871
332.504
334.135
335.752
337.341
338.89
340.384
341.809
343.153
344.402
345.543
346.565
347.457
348.209
348.813
349.262
349.552
349.679
349.641
349.439
349.076
348.554
347.879
347.06
346.104
345.022
343.824
342.523
341.133
339.666
338.135
336.556
334.942
333.306
331.661
330.02
328.394
326.795
325.231
323.711
322.243
320.833
319.487
318.208
317
315.865
314.803
313.814
312.899
312.056
311.282
310.576
309.933
309.351
308.826
308.354
307.93
307.549
307.208
306.9
306.62
306.361
306.116
305.878
305.634
305.375
305.085
304.746
304.332
303.812
303.139
302.236
300.966
301.157
302.808
304.098
305.167
306.093
306.928
307.709
308.464
309.216
309.983
310.779
311.619
312.51
313.463
314.483
315.576
316.743
317.989
319.313
320.714
322.191
323.74
325.356
327.033
328.764
330.54
332.352
334.186
336.033
337.878
339.707
341.505
343.258
344.949
346.564
348.087
349.502
350.797
351.956
352.969
353.824
354.512
355.026
355.359
355.508
355.471
355.248
354.841
354.256
353.498
352.576
351.499
350.279
348.928
347.46
345.89
344.233
342.505
340.72
338.895
337.046
335.186
333.33
331.491
329.681
327.911
326.192
324.53
322.934
321.41
319.962
318.594
317.309
316.106
314.987
313.95
312.995
312.118
311.318
310.59
309.931
309.336
308.801
308.321
307.891
307.506
307.159
306.844
306.555
306.284
306.021
305.757
305.479
305.172
304.817
304.389
303.856
303.17
302.254
300.972
301.184
302.892
304.238
305.365
306.351
307.249
308.097
308.922
309.75
310.599
311.485
312.42
313.417
314.483
315.626
316.851
318.162
319.56
321.046
322.62
324.28
326.021
327.837
329.723
331.67
333.668
335.706
337.771
339.849
341.926
343.986
346.012
347.987
349.894
351.715
353.433
355.03
356.492
357.803
358.948
359.916
360.697
361.281
361.662
361.836
361.8
361.555
361.104
360.451
359.603
358.57
357.362
355.992
354.475
352.826
351.061
349.198
347.254
345.246
343.193
341.111
339.017
336.927
334.856
332.818
330.824
328.886
327.014
325.215
323.498
321.866
320.323
318.873
317.517
316.255
315.086
314.009
313.02
312.117
311.296
310.553
309.882
309.279
308.738
308.254
307.821
307.431
307.079
306.757
306.457
306.169
305.882
305.584
305.26
304.889
304.446
303.9
303.2
302.272
300.978
301.214
302.98
304.387
305.575
306.625
307.59
308.509
309.41
310.319
311.256
312.238
313.277
314.387
315.576
316.851
318.219
319.683
321.246
322.909
324.67
326.527
328.475
330.509
332.621
334.801
337.039
339.322
341.637
343.967
346.296
348.606
350.879
353.096
355.236
357.281
359.211
361.007
362.651
364.126
365.416
366.508
367.39
368.051
368.486
368.687
368.654
368.387
367.887
367.161
366.217
365.064
363.716
362.185
360.488
358.643
356.668
354.581
352.403
350.154
347.853
345.519
343.172
340.828
338.505
336.219
333.982
331.807
329.706
327.688
325.76
323.927
322.196
320.568
319.045
317.628
316.315
315.105
313.994
312.98
312.058
311.223
310.469
309.792
309.185
308.642
308.156
307.721
307.328
306.97
306.639
306.323
306.012
305.693
305.35
304.962
304.504
303.943
303.231
302.29
300.984
301.245
303.074
304.545
305.798
306.916
307.953
308.947
309.929
310.926
311.957
313.041
314.192
315.423
316.743
318.162
319.683
321.313
323.054
324.906
326.868
328.937
331.109
333.377
335.733
338.165
340.662
343.211
345.794
348.396
350.997
353.578
356.119
358.596
360.99
363.277
365.437
367.448
369.289
370.943
372.39
373.617
374.609
375.356
375.848
376.081
376.052
375.761
375.211
374.408
373.36
372.079
370.579
368.875
366.985
364.929
362.726
360.399
357.969
355.459
352.89
350.285
347.663
345.046
342.451
339.896
337.396
334.966
332.617
330.361
328.205
326.156
324.219
322.399
320.695
319.11
317.641
316.287
315.044
313.91
312.878
311.943
311.101
310.343
309.664
309.058
308.515
308.03
307.593
307.197
306.831
306.486
306.149
305.808
305.444
305.038
304.565
303.989
303.263
302.309
300.99
301.278
303.174
304.712
306.035
307.225
308.338
309.412
310.482
311.571
312.704
313.897
315.167
316.528
317.989
319.56
321.246
323.054
324.985
327.04
329.218
331.516
333.928
336.447
339.064
341.767
344.543
347.376
350.249
353.143
356.037
358.91
361.738
364.497
367.163
369.712
372.12
374.362
376.417
378.263
379.881
381.254
382.366
383.205
383.762
384.03
384.007
383.691
383.088
382.202
381.044
379.626
377.964
376.074
373.977
371.694
369.248
366.663
363.962
361.172
358.315
355.417
352.501
349.588
346.701
343.856
341.074
338.368
335.753
333.24
330.838
328.556
326.399
324.37
322.472
320.705
319.068
317.559
316.174
314.909
313.759
312.718
311.778
310.934
310.178
309.502
308.899
308.36
307.876
307.438
307.036
306.659
306.295
305.928
305.543
305.118
304.628
304.037
303.296
302.329
300.997
301.313
303.279
304.889
306.286
307.553
308.746
309.906
311.067
312.256
313.495
314.805
316.203
317.701
319.313
321.046
322.909
324.906
327.04
329.312
331.72
334.262
336.931
339.718
342.615
345.608
348.682
351.82
355.003
358.21
361.418
364.603
367.739
370.8
373.759
376.588
379.262
381.754
384.039
386.092
387.894
389.424
390.666
391.605
392.232
392.539
392.523
392.183
391.523
390.551
389.276
387.712
385.877
383.79
381.472
378.947
376.24
373.379
370.389
367.298
364.133
360.922
357.69
354.462
351.26
348.106
345.02
342.019
339.117
336.329
333.664
331.132
328.737
326.485
324.378
322.417
320.599
318.924
317.386
315.981
314.704
313.547
312.504
311.567
310.728
309.978
309.309
308.712
308.177
307.695
307.254
306.843
306.449
306.056
305.648
305.203
304.694
304.087
303.331
302.349
301.004
301.35
303.391
305.076
306.551
307.899
309.177
310.428
311.686
312.979
314.332
315.766
317.298
318.943
320.714
322.62
324.67
326.868
329.218
331.72
334.374
337.175
340.116
343.19
346.384
349.685
353.077
356.54
360.053
363.594
367.136
370.654
374.119
377.502
380.774
383.904
386.862
389.62
392.151
394.427
396.426
398.125
399.506
400.554
401.257
401.606
401.599
401.234
400.516
399.452
398.054
396.337
394.319
392.021
389.468
386.686
383.702
380.547
377.248
373.838
370.345
366.8
363.232
359.666
356.129
352.645
349.235
345.918
342.712
339.63
336.684
333.883
331.236
328.746
326.415
324.246
322.235
320.382
318.68
317.126
315.713
314.433
313.279
312.243
311.315
310.486
309.747
309.088
308.498
307.968
307.485
307.038
306.612
306.192
305.76
305.293
304.765
304.14
303.368
302.371
301.011
301.389
303.508
305.273
306.829
308.262
309.63
310.976
312.336
313.74
315.214
316.778
318.452
320.252
322.191
324.28
326.527
328.937
331.516
334.262
337.175
340.25
343.481
346.857
350.367
353.994
357.722
361.529
365.393
369.287
373.185
377.057
380.871
384.597
388.2
391.649
394.91
397.952
400.744
403.258
405.467
407.346
408.877
410.041
410.826
411.223
411.227
410.837
410.058
408.899
407.371
405.491
403.28
400.761
397.959
394.905
391.628
388.161
384.536
380.787
376.946
373.047
369.121
365.198
361.306
357.471
353.717
350.065
346.534
343.14
339.895
336.81
333.893
331.15
328.582
326.191
323.975
321.932
320.057
318.344
316.786
315.376
314.104
312.961
311.938
311.025
310.211
309.486
308.839
308.258
307.731
307.245
306.785
306.336
305.877
305.388
304.84
304.196
303.407
302.394
301.019
301.43
303.63
305.478
307.12
308.643
310.105
311.551
313.018
314.538
316.137
317.838
319.661
321.624
323.74
326.021
328.475
331.109
333.928
336.931
340.116
343.481
347.016
350.711
354.553
358.525
362.607
366.778
371.011
375.279
379.551
383.797
387.98
392.067
396.022
399.808
403.39
406.733
409.803
412.568
415
417.072
418.761
420.05
420.923
421.371
421.388
420.973
420.132
418.873
417.21
415.16
412.746
409.994
406.932
403.591
400.005
396.21
392.24
388.134
383.926
379.654
375.35
371.049
366.782
362.576
358.459
354.453
350.579
346.854
343.294
339.908
336.707
333.695
330.876
328.25
325.818
323.574
321.515
319.634
317.922
316.373
314.976
313.721
312.598
311.596
310.703
309.908
309.2
308.565
307.991
307.464
306.968
306.488
306.002
305.488
304.918
304.255
303.448
302.419
301.027
301.472
303.758
305.693
307.424
309.039
310.599
312.149
313.729
315.369
317.1
318.944
320.923
323.055
325.356
327.837
330.509
333.377
336.447
339.718
343.19
346.857
350.711
354.74
358.93
363.263
367.718
372.27
376.891
381.551
386.217
390.855
395.427
399.894
404.218
408.36
412.279
415.939
419.301
422.332
424.999
427.275
429.133
430.554
431.521
432.024
432.057
431.618
430.713
429.351
427.547
425.32
422.695
419.699
416.363
412.723
408.813
404.674
400.343
395.862
391.269
386.604
381.905
377.207
372.545
367.95
363.45
359.072
354.838
350.766
346.873
343.171
339.669
336.375
333.291
330.42
327.758
325.304
323.05
320.992
319.119
317.424
315.895
314.522
313.293
312.197
311.221
310.353
309.58
308.888
308.265
307.694
307.161
306.647
306.133
305.594
305.001
304.317
303.492
302.444
301.035
301.516
303.89
305.915
307.739
309.45
311.111
312.77
314.465
316.231
318.098
320.09
322.232
324.54
327.033
329.723
332.621
335.733
339.064
342.615
346.384
350.367
354.553
358.93
363.484
368.193
373.036
377.985
383.012
388.081
393.159
398.207
403.184
408.05
412.761
417.274
421.547
425.538
429.207
432.517
435.432
437.921
439.958
441.518
442.586
443.149
443.199
442.737
441.766
440.298
438.349
435.938
433.094
429.844
426.225
422.272
418.025
413.527
408.82
403.947
398.953
393.878
388.765
383.653
378.578
373.576
368.677
363.909
359.298
354.862
350.621
346.588
342.773
339.183
335.823
332.693
329.792
327.116
324.66
322.415
320.374
318.525
316.858
315.362
314.022
312.827
311.764
310.818
309.977
309.227
308.551
307.935
307.363
306.815
306.27
305.704
305.088
304.383
303.537
302.471
301.044
301.561
304.027
306.144
308.063
309.874
311.639
313.409
315.224
317.12
319.127
321.273
323.582
326.073
328.764
331.67
334.801
338.165
341.767
345.608
349.685
353.994
358.525
363.263
368.193
373.294
378.539
383.901
389.348
394.843
400.348
405.822
411.221
416.5
421.613
426.514
431.155
435.492
439.482
443.082
446.256
448.97
451.192
452.9
454.074
454.7
454.771
454.286
453.25
451.673
449.574
446.975
443.904
440.393
436.479
432.203
427.607
422.737
417.639
412.361
406.948
401.448
395.906
390.363
384.86
379.434
374.12
368.947
363.943
359.13
354.527
350.149
346.007
342.11
338.461
335.062
331.911
329.005
326.337
323.899
321.682
319.674
317.863
316.237
314.782
313.484
312.33
311.304
310.392
309.58
308.85
308.187
307.573
306.989
306.413
305.819
305.178
304.451
303.584
302.499
301.053
301.607
304.166
306.378
308.395
310.307
312.18
314.064
316.002
318.031
320.182
322.486
324.966
327.645
330.54
333.668
337.039
340.662
344.543
348.682
353.077
357.722
362.607
367.718
373.036
378.539
384.2
389.988
395.868
401.803
407.749
413.664
419.499
425.206
430.735
436.036
441.059
445.755
450.076
453.979
457.422
460.368
462.786
464.647
465.932
466.626
466.72
466.214
465.111
463.425
461.173
458.38
455.076
451.297
447.08
442.471
437.516
432.263
426.762
421.065
415.222
409.283
403.296
397.308
391.362
385.499
379.755
374.164
368.754
363.55
358.572
353.837
349.358
345.142
341.194
337.517
334.108
330.963
328.076
325.438
323.038
320.864
318.904
317.144
315.569
314.165
312.917
311.808
310.823
309.946
309.16
308.448
307.791
307.17
306.561
305.938
305.272
304.521
303.633
302.528
301.063
301.655
304.308
306.617
308.733
310.749
312.731
314.732
316.795
318.958
321.257
323.722
326.377
329.247
332.352
335.706
339.322
343.211
347.376
351.82
356.54
361.529
366.778
372.27
377.985
383.901
389.988
396.213
402.538
408.923
415.323
421.69
427.973
434.12
440.077
445.791
451.206
456.271
460.935
465.15
468.87
472.058
474.677
476.698
478.1
478.865
478.985
478.458
477.29
475.493
473.086
470.097
466.556
462.501
457.976
453.026
447.702
442.057
436.143
430.017
423.731
417.342
410.899
404.455
398.054
391.742
385.557
379.535
373.707
368.101
362.738
357.636
352.809
348.265
344.01
340.046
336.372
332.981
329.868
327.023
324.435
322.091
319.978
318.08
316.382
314.868
313.522
312.327
311.266
310.323
309.479
308.717
308.016
307.356
306.714
306.062
305.368
304.594
303.684
302.558
301.073
301.702
304.452
306.858
309.075
311.196
313.289
315.407
317.596
319.898
322.346
324.973
327.806
330.871
334.186
337.771
341.637
345.794
350.249
355.003
360.053
365.393
371.011
376.891
383.012
389.348
395.868
402.538
409.318
416.163
423.025
429.853
436.594
443.19
449.585
455.72
461.537
466.98
471.995
476.529
480.535
483.97
486.797
488.984
490.506
491.347
491.496
490.951
489.717
487.809
485.246
482.057
478.276
473.943
469.104
463.808
458.11
452.064
445.73
439.166
432.431
425.581
418.674
411.763
404.899
398.127
391.491
385.03
378.776
372.759
367.002
361.525
356.342
351.463
346.894
342.637
338.689
335.048
331.703
328.647
325.867
323.348
321.077
319.038
317.214
315.587
314.142
312.859
311.721
310.71
309.807
308.993
308.247
307.547
306.87
306.188
305.467
304.668
303.736
302.588
301.083
301.75
304.596
307.101
309.418
311.645
313.849
316.085
318.402
320.842
323.44
326.231
329.244
332.504
336.033
339.849
343.967
348.396
353.143
358.21
363.594
369.287
375.279
381.551
388.081
394.843
401.803
408.923
416.163
423.473
430.804
438.101
445.305
452.357
459.196
465.76
471.986
477.814
483.185
488.045
492.342
496.031
499.07
501.427
503.074
503.993
504.173
503.612
502.315
500.296
497.578
494.189
490.166
485.552
480.396
474.751
468.674
462.225
455.465
448.458
441.266
433.951
426.573
419.189
411.854
404.617
397.524
390.616
383.929
377.495
371.338
365.48
359.936
354.716
349.827
345.272
341.048
337.151
333.572
330.3
327.324
324.628
322.197
320.014
318.061
316.32
314.773
313.401
312.184
311.104
310.14
309.273
308.482
307.742
307.03
306.316
305.568
304.744
303.789
302.62
301.093
301.798
304.74
307.342
309.761
312.093
314.407
316.762
319.207
321.784
324.532
327.487
330.679
334.135
337.878
341.926
346.296
350.997
356.037
361.418
367.136
373.185
379.551
386.217
393.159
400.348
407.749
415.323
423.025
430.804
438.607
446.375
454.047
461.559
468.846
475.841
482.48
488.697
494.429
499.619
504.211
508.157
511.412
513.942
515.717
516.718
516.932
516.357
514.998
512.87
509.997
506.409
502.145
497.251
491.777
485.782
479.324
472.469
465.282
457.83
450.179
442.396
434.544
426.684
418.874
411.168
403.614
396.257
389.134
382.278
375.718
369.475
363.567
358.003
352.792
347.936
343.432
339.277
335.46
331.971
328.797
325.922
323.329
321.001
318.918
317.062
315.412
313.949
312.652
311.502
310.478
309.558
308.719
307.939
307.191
306.446
305.67
304.821
303.842
302.651
301.104
301.845
304.883
307.582
310.1
312.536
314.96
317.432
320.003
322.716
325.614
328.732
332.102
335.752
339.707
343.986
348.606
353.578
358.91
364.603
370.654
377.057
383.797
390.855
398.207
405.822
413.664
421.69
429.853
438.101
446.375
454.614
462.754
470.726
478.462
485.89
492.942
499.549
505.644
511.165
516.054
520.259
523.733
526.438
528.344
529.429
529.68
529.093
527.675
525.441
522.415
518.63
514.127
508.953
503.165
496.82
489.985
482.725
475.112
467.215
459.106
450.855
442.53
434.194
425.91
417.735
409.72
401.912
394.352
387.076
380.112
373.483
367.209
361.301
355.767
350.609
345.825
341.411
337.356
333.649
330.277
327.222
324.467
321.992
319.779
317.806
316.053
314.499
313.123
311.903
310.817
309.843
308.958
308.137
307.354
306.577
305.773
304.898
303.896
302.683
301.114
301.892
305.022
307.817
310.433
312.971
315.503
318.09
320.784
323.633
326.677
329.954
333.499
337.341
341.505
346.012
350.879
356.119
361.738
367.739
374.119
380.871
387.98
395.427
403.184
411.221
419.499
427.973
436.594
445.305
454.047
462.754
471.357
479.787
487.968
495.827
503.291
510.286
516.742
522.594
527.78
532.244
535.937
538.819
540.857
542.027
542.317
541.721
540.247
537.91
534.735
530.757
526.019
520.572
514.472
507.783
500.574
492.914
484.879
476.542
467.98
459.265
450.47
441.663
432.908
424.267
415.795
407.54
399.546
391.851
384.485
377.474
370.836
364.586
358.73
353.272
348.209
343.537
339.245
335.322
331.751
328.517
325.6
322.98
320.637
318.549
316.693
315.049
313.592
312.302
311.155
310.128
309.197
308.335
307.516
306.708
305.876
304.975
303.95
302.715
301.125
301.937
305.158
308.045
310.756
313.394
316.031
318.73
321.545
324.524
327.711
331.145
334.861
338.89
343.258
347.987
353.096
358.596
364.497
370.8
377.502
384.597
392.067
399.894
408.05
416.5
425.206
434.12
443.19
452.357
461.559
470.726
479.787
488.666
497.286
505.57
513.44
520.818
527.632
533.812
539.291
544.012
547.924
550.982
553.152
554.41
554.74
554.139
552.613
550.177
546.858
542.693
537.726
532.01
525.607
518.581
511.005
502.954
494.505
485.736
476.728
467.558
458.301
449.029
439.812
430.713
421.79
413.094
404.673
396.565
388.803
381.415
374.419
367.83
361.657
355.903
350.565
345.638
341.112
336.975
333.209
329.798
326.721
323.958
321.486
319.283
317.326
315.592
314.057
312.698
311.49
310.41
309.433
308.531
307.676
306.837
305.977
305.052
304.003
302.746
301.135
301.98
305.289
308.265
311.068
313.801
316.539
319.347
322.278
325.384
328.708
332.293
336.174
340.384
344.949
349.894
355.236
360.99
367.163
373.759
380.774
388.2
396.022
404.218
412.761
421.613
430.735
440.077
449.585
459.196
468.846
478.462
487.968
497.286
506.336
515.035
523.302
531.056
538.22
544.72
550.489
555.463
559.59
562.823
565.125
566.471
566.844
566.24
564.665
562.136
558.68
554.334
549.147
543.173
536.475
529.123
521.191
512.759
503.907
494.719
485.277
475.663
465.956
456.232
446.564
437.017
427.654
418.529
409.69
401.179
393.031
385.273
377.927
371.008
364.525
358.48
352.873
347.697
342.942
338.595
334.638
331.053
327.82
324.916
322.319
320.004
317.947
316.125
314.513
313.085
311.819
310.687
309.664
308.723
307.834
306.964
306.077
305.127
304.055
302.777
301.145
302.022
305.414
308.474
311.365
314.189
317.023
319.934
322.976
326.202
329.659
333.388
337.427
341.809
346.564
351.715
357.281
363.277
369.712
376.588
383.904
391.649
399.808
408.36
417.274
426.514
436.036
445.791
455.72
465.76
475.841
485.89
495.827
505.57
515.035
524.136
532.788
540.906
548.41
555.222
561.272
566.494
570.831
574.235
576.668
578.102
578.519
577.916
576.297
573.681
570.095
565.578
560.18
553.959
546.979
539.314
531.041
522.242
513.004
503.411
493.551
483.509
473.368
463.207
453.103
443.125
433.337
423.796
414.553
405.652
397.13
389.015
381.33
374.091
367.307
360.981
355.113
349.696
344.719
340.168
336.026
332.273
328.888
325.847
323.127
320.704
318.551
316.643
314.956
313.462
312.138
310.956
309.889
308.91
307.987
307.088
306.174
305.2
304.106
302.807
301.155
302.061
305.531
308.671
311.644
314.553
317.479
320.486
323.633
326.973
330.554
334.419
338.607
343.153
348.087
353.433
359.211
365.437
372.12
379.262
386.862
394.91
403.39
412.279
421.547
431.155
441.059
451.206
461.537
471.986
482.48
492.942
503.291
513.44
523.302
532.788
541.808
550.276
558.106
565.219
571.54
577
581.541
585.112
587.673
589.194
589.657
589.058
587.401
584.704
580.997
576.32
570.724
564.268
557.022
549.059
540.462
531.316
521.709
511.731
501.473
491.023
480.468
469.891
459.37
448.979
438.785
428.846
419.218
409.944
401.063
392.606
384.596
377.05
369.978
363.384
357.265
351.616
346.426
341.68
337.36
333.445
329.914
326.742
323.905
321.377
319.131
317.141
315.382
313.825
312.445
311.215
310.106
309.089
308.134
307.206
306.267
305.27
304.155
302.836
301.165
302.097
305.64
308.853
311.902
314.891
317.901
320.998
324.243
327.688
331.385
335.376
339.704
344.402
349.502
355.03
361.007
367.448
374.362
381.754
389.62
397.952
406.733
415.939
425.538
435.492
445.755
456.271
466.98
477.814
488.697
499.549
510.286
520.818
531.056
540.906
550.276
559.075
567.216
574.615
581.193
586.882
591.618
595.349
598.034
599.64
600.151
599.558
597.868
595.099
591.281
586.456
580.676
574.003
566.507
558.267
549.366
539.893
529.94
519.601
508.967
498.133
487.188
476.218
465.305
454.525
443.946
433.633
423.639
414.012
404.792
396.012
387.695
379.858
372.513
365.664
359.308
353.44
348.047
343.116
338.627
334.559
330.89
327.593
324.645
322.017
319.683
317.615
315.787
314.17
312.738
311.461
310.312
309.261
308.275
307.32
306.356
305.337
304.202
302.864
301.174
302.129
305.738
309.019
312.137
315.199
318.286
321.465
324.798
328.341
332.143
336.25
340.705
345.543
350.797
356.492
362.651
369.289
376.417
384.039
392.151
400.744